+ 0.1 1 2 cbr 1000 ------- 2 1.0 3.1 0 0
- 0.1 1 2 cbr 1000 ------- 2 1.0 3.1 0 0
+ 0.108 1 2 cbr 1000 ------- 2 1.0 3.1 1 1
- 0.108 1 2 cbr 1000 ------- 2 1.0 3.1 1 1
+ 0.116 1 2 cbr 1000 ------- 2 1.0 3.1 2 2
- 0.116 1 2 cbr 1000 ------- 2 1.0 3.1 2 2
r 0.124 1 2 cbr 1000 ------- 2 1.0 3.1 0 0
+ 0.124 2 3 cbr 1000 ------- 2 1.0 3.1 0 0
- 0.124 2 3 cbr 1000 ------- 2 1.0 3.1 0 0
+ 0.124 1 2 cbr 1000 ------- 2 1.0 3.1 3 3
- 0.124 1 2 cbr 1000 ------- 2 1.0 3.1 3 3
r 0.132 1 2 cbr 1000 ------- 2 1.0 3.1 1 1
+ 0.132 2 3 cbr 1000 ------- 2 1.0 3.1 1 1
- 0.132 2 3 cbr 1000 ------- 2 1.0 3.1 1 1
+ 0.132 1 2 cbr 1000 ------- 2 1.0 3.1 4 4
- 0.132 1 2 cbr 1000 ------- 2 1.0 3.1 4 4
r 0.14 1 2 cbr 1000 ------- 2 1.0 3.1 2 2
+ 0.14 2 3 cbr 1000 ------- 2 1.0 3.1 2 2
- 0.14 2 3 cbr 1000 ------- 2 1.0 3.1 2 2
+ 0.14 1 2 cbr 1000 ------- 2 1.0 3.1 5 5
- 0.14 1 2 cbr 1000 ------- 2 1.0 3.1 5 5
r 0.142 2 3 cbr 1000 ------- 2 1.0 3.1 0 0
r 0.148 1 2 cbr 1000 ------- 2 1.0 3.1 3 3
+ 0.148 2 3 cbr 1000 ------- 2 1.0 3.1 3 3
- 0.148 2 3 cbr 1000 ------- 2 1.0 3.1 3 3
+ 0.148 1 2 cbr 1000 ------- 2 1.0 3.1 6 6
- 0.148 1 2 cbr 1000 ------- 2 1.0 3.1 6 6
r 0.15 2 3 cbr 1000 ------- 2 1.0 3.1 1 1
r 0.156 1 2 cbr 1000 ------- 2 1.0 3.1 4 4
+ 0.156 2 3 cbr 1000 ------- 2 1.0 3.1 4 4
- 0.156 2 3 cbr 1000 ------- 2 1.0 3.1 4 4
+ 0.156 1 2 cbr 1000 ------- 2 1.0 3.1 7 7
- 0.156 1 2 cbr 1000 ------- 2 1.0 3.1 7 7
r 0.158 2 3 cbr 1000 ------- 2 1.0 3.1 2 2
r 0.164 1 2 cbr 1000 ------- 2 1.0 3.1 5 5
+ 0.164 2 3 cbr 1000 ------- 2 1.0 3.1 5 5
- 0.164 2 3 cbr 1000 ------- 2 1.0 3.1 5 5
+ 0.164 1 2 cbr 1000 ------- 2 1.0 3.1 8 8
- 0.164 1 2 cbr 1000 ------- 2 1.0 3.1 8 8
r 0.166 2 3 cbr 1000 ------- 2 1.0 3.1 3 3
r 0.172 1 2 cbr 1000 ------- 2 1.0 3.1 6 6
+ 0.172 2 3 cbr 1000 ------- 2 1.0 3.1 6 6
- 0.172 2 3 cbr 1000 ------- 2 1.0 3.1 6 6
+ 0.172 1 2 cbr 1000 ------- 2 1.0 3.1 9 9
- 0.172 1 2 cbr 1000 ------- 2 1.0 3.1 9 9
r 0.174 2 3 cbr 1000 ------- 2 1.0 3.1 4 4
r 0.18 1 2 cbr 1000 ------- 2 1.0 3.1 7 7
+ 0.18 2 3 cbr 1000 ------- 2 1.0 3.1 7 7
- 0.18 2 3 cbr 1000 ------- 2 1.0 3.1 7 7
+ 0.18 1 2 cbr 1000 ------- 2 1.0 3.1 10 10
- 0.18 1 2 cbr 1000 ------- 2 1.0 3.1 10 10
r 0.182 2 3 cbr 1000 ------- 2 1.0 3.1 5 5
r 0.188 1 2 cbr 1000 ------- 2 1.0 3.1 8 8
+ 0.188 2 3 cbr 1000 ------- 2 1.0 3.1 8 8
- 0.188 2 3 cbr 1000 ------- 2 1.0 3.1 8 8
+ 0.188 1 2 cbr 1000 ------- 2 1.0 3.1 11 11
- 0.188 1 2 cbr 1000 ------- 2 1.0 3.1 11 11
r 0.19 2 3 cbr 1000 ------- 2 1.0 3.1 6 6
r 0.196 1 2 cbr 1000 ------- 2 1.0 3.1 9 9
+ 0.196 2 3 cbr 1000 ------- 2 1.0 3.1 9 9
- 0.196 2 3 cbr 1000 ------- 2 1.0 3.1 9 9
+ 0.196 1 2 cbr 1000 ------- 2 1.0 3.1 12 12
- 0.196 1 2 cbr 1000 ------- 2 1.0 3.1 12 12
r 0.198 2 3 cbr 1000 ------- 2 1.0 3.1 7 7
r 0.204 1 2 cbr 1000 ------- 2 1.0 3.1 10 10
+ 0.204 2 3 cbr 1000 ------- 2 1.0 3.1 10 10
- 0.204 2 3 cbr 1000 ------- 2 1.0 3.1 10 10
+ 0.204 1 2 cbr 1000 ------- 2 1.0 3.1 13 13
- 0.204 1 2 cbr 1000 ------- 2 1.0 3.1 13 13
r 0.206 2 3 cbr 1000 ------- 2 1.0 3.1 8 8
r 0.212 1 2 cbr 1000 ------- 2 1.0 3.1 11 11
+ 0.212 2 3 cbr 1000 ------- 2 1.0 3.1 11 11
- 0.212 2 3 cbr 1000 ------- 2 1.0 3.1 11 11
+ 0.212 1 2 cbr 1000 ------- 2 1.0 3.1 14 14
- 0.212 1 2 cbr 1000 ------- 2 1.0 3.1 14 14
r 0.214 2 3 cbr 1000 ------- 2 1.0 3.1 9 9
r 0.22 1 2 cbr 1000 ------- 2 1.0 3.1 12 12
+ 0.22 2 3 cbr 1000 ------- 2 1.0 3.1 12 12
- 0.22 2 3 cbr 1000 ------- 2 1.0 3.1 12 12
+ 0.22 1 2 cbr 1000 ------- 2 1.0 3.1 15 15
- 0.22 1 2 cbr 1000 ------- 2 1.0 3.1 15 15
r 0.222 2 3 cbr 1000 ------- 2 1.0 3.1 10 10
r 0.228 1 2 cbr 1000 ------- 2 1.0 3.1 13 13
+ 0.228 2 3 cbr 1000 ------- 2 1.0 3.1 13 13
- 0.228 2 3 cbr 1000 ------- 2 1.0 3.1 13 13
+ 0.228 1 2 cbr 1000 ------- 2 1.0 3.1 16 16
- 0.228 1 2 cbr 1000 ------- 2 1.0 3.1 16 16
r 0.23 2 3 cbr 1000 ------- 2 1.0 3.1 11 11
r 0.236 1 2 cbr 1000 ------- 2 1.0 3.1 14 14
+ 0.236 2 3 cbr 1000 ------- 2 1.0 3.1 14 14
- 0.236 2 3 cbr 1000 ------- 2 1.0 3.1 14 14
+ 0.236 1 2 cbr 1000 ------- 2 1.0 3.1 17 17
- 0.236 1 2 cbr 1000 ------- 2 1.0 3.1 17 17
r 0.238 2 3 cbr 1000 ------- 2 1.0 3.1 12 12
r 0.244 1 2 cbr 1000 ------- 2 1.0 3.1 15 15
+ 0.244 2 3 cbr 1000 ------- 2 1.0 3.1 15 15
- 0.244 2 3 cbr 1000 ------- 2 1.0 3.1 15 15
+ 0.244 1 2 cbr 1000 ------- 2 1.0 3.1 18 18
- 0.244 1 2 cbr 1000 ------- 2 1.0 3.1 18 18
r 0.246 2 3 cbr 1000 ------- 2 1.0 3.1 13 13
r 0.252 1 2 cbr 1000 ------- 2 1.0 3.1 16 16
+ 0.252 2 3 cbr 1000 ------- 2 1.0 3.1 16 16
- 0.252 2 3 cbr 1000 ------- 2 1.0 3.1 16 16
+ 0.252 1 2 cbr 1000 ------- 2 1.0 3.1 19 19
- 0.252 1 2 cbr 1000 ------- 2 1.0 3.1 19 19
r 0.254 2 3 cbr 1000 ------- 2 1.0 3.1 14 14
r 0.26 1 2 cbr 1000 ------- 2 1.0 3.1 17 17
+ 0.26 2 3 cbr 1000 ------- 2 1.0 3.1 17 17
- 0.26 2 3 cbr 1000 ------- 2 1.0 3.1 17 17
+ 0.26 1 2 cbr 1000 ------- 2 1.0 3.1 20 20
- 0.26 1 2 cbr 1000 ------- 2 1.0 3.1 20 20
r 0.262 2 3 cbr 1000 ------- 2 1.0 3.1 15 15
r 0.268 1 2 cbr 1000 ------- 2 1.0 3.1 18 18
+ 0.268 2 3 cbr 1000 ------- 2 1.0 3.1 18 18
- 0.268 2 3 cbr 1000 ------- 2 1.0 3.1 18 18
+ 0.268 1 2 cbr 1000 ------- 2 1.0 3.1 21 21
- 0.268 1 2 cbr 1000 ------- 2 1.0 3.1 21 21
r 0.27 2 3 cbr 1000 ------- 2 1.0 3.1 16 16
r 0.276 1 2 cbr 1000 ------- 2 1.0 3.1 19 19
+ 0.276 2 3 cbr 1000 ------- 2 1.0 3.1 19 19
- 0.276 2 3 cbr 1000 ------- 2 1.0 3.1 19 19
+ 0.276 1 2 cbr 1000 ------- 2 1.0 3.1 22 22
- 0.276 1 2 cbr 1000 ------- 2 1.0 3.1 22 22
r 0.278 2 3 cbr 1000 ------- 2 1.0 3.1 17 17
r 0.284 1 2 cbr 1000 ------- 2 1.0 3.1 20 20
+ 0.284 2 3 cbr 1000 ------- 2 1.0 3.1 20 20
- 0.284 2 3 cbr 1000 ------- 2 1.0 3.1 20 20
+ 0.284 1 2 cbr 1000 ------- 2 1.0 3.1 23 23
- 0.284 1 2 cbr 1000 ------- 2 1.0 3.1 23 23
r 0.286 2 3 cbr 1000 ------- 2 1.0 3.1 18 18
r 0.292 1 2 cbr 1000 ------- 2 1.0 3.1 21 21
+ 0.292 2 3 cbr 1000 ------- 2 1.0 3.1 21 21
- 0.292 2 3 cbr 1000 ------- 2 1.0 3.1 21 21
+ 0.292 1 2 cbr 1000 ------- 2 1.0 3.1 24 24
- 0.292 1 2 cbr 1000 ------- 2 1.0 3.1 24 24
r 0.294 2 3 cbr 1000 ------- 2 1.0 3.1 19 19
r 0.3 1 2 cbr 1000 ------- 2 1.0 3.1 22 22
+ 0.3 2 3 cbr 1000 ------- 2 1.0 3.1 22 22
- 0.3 2 3 cbr 1000 ------- 2 1.0 3.1 22 22
+ 0.3 1 2 cbr 1000 ------- 2 1.0 3.1 25 25
- 0.3 1 2 cbr 1000 ------- 2 1.0 3.1 25 25
r 0.302 2 3 cbr 1000 ------- 2 1.0 3.1 20 20
r 0.308 1 2 cbr 1000 ------- 2 1.0 3.1 23 23
+ 0.308 2 3 cbr 1000 ------- 2 1.0 3.1 23 23
- 0.308 2 3 cbr 1000 ------- 2 1.0 3.1 23 23
+ 0.308 1 2 cbr 1000 ------- 2 1.0 3.1 26 26
- 0.308 1 2 cbr 1000 ------- 2 1.0 3.1 26 26
r 0.31 2 3 cbr 1000 ------- 2 1.0 3.1 21 21
r 0.316 1 2 cbr 1000 ------- 2 1.0 3.1 24 24
+ 0.316 2 3 cbr 1000 ------- 2 1.0 3.1 24 24
- 0.316 2 3 cbr 1000 ------- 2 1.0 3.1 24 24
+ 0.316 1 2 cbr 1000 ------- 2 1.0 3.1 27 27
- 0.316 1 2 cbr 1000 ------- 2 1.0 3.1 27 27
r 0.318 2 3 cbr 1000 ------- 2 1.0 3.1 22 22
r 0.324 1 2 cbr 1000 ------- 2 1.0 3.1 25 25
+ 0.324 2 3 cbr 1000 ------- 2 1.0 3.1 25 25
- 0.324 2 3 cbr 1000 ------- 2 1.0 3.1 25 25
+ 0.324 1 2 cbr 1000 ------- 2 1.0 3.1 28 28
- 0.324 1 2 cbr 1000 ------- 2 1.0 3.1 28 28
r 0.326 2 3 cbr 1000 ------- 2 1.0 3.1 23 23
r 0.332 1 2 cbr 1000 ------- 2 1.0 3.1 26 26
+ 0.332 2 3 cbr 1000 ------- 2 1.0 3.1 26 26
- 0.332 2 3 cbr 1000 ------- 2 1.0 3.1 26 26
+ 0.332 1 2 cbr 1000 ------- 2 1.0 3.1 29 29
- 0.332 1 2 cbr 1000 ------- 2 1.0 3.1 29 29
r 0.334 2 3 cbr 1000 ------- 2 1.0 3.1 24 24
r 0.34 1 2 cbr 1000 ------- 2 1.0 3.1 27 27
+ 0.34 2 3 cbr 1000 ------- 2 1.0 3.1 27 27
- 0.34 2 3 cbr 1000 ------- 2 1.0 3.1 27 27
+ 0.34 1 2 cbr 1000 ------- 2 1.0 3.1 30 30
- 0.34 1 2 cbr 1000 ------- 2 1.0 3.1 30 30
r 0.342 2 3 cbr 1000 ------- 2 1.0 3.1 25 25
r 0.348 1 2 cbr 1000 ------- 2 1.0 3.1 28 28
+ 0.348 2 3 cbr 1000 ------- 2 1.0 3.1 28 28
- 0.348 2 3 cbr 1000 ------- 2 1.0 3.1 28 28
+ 0.348 1 2 cbr 1000 ------- 2 1.0 3.1 31 31
- 0.348 1 2 cbr 1000 ------- 2 1.0 3.1 31 31
r 0.35 2 3 cbr 1000 ------- 2 1.0 3.1 26 26
r 0.356 1 2 cbr 1000 ------- 2 1.0 3.1 29 29
+ 0.356 2 3 cbr 1000 ------- 2 1.0 3.1 29 29
- 0.356 2 3 cbr 1000 ------- 2 1.0 3.1 29 29
+ 0.356 1 2 cbr 1000 ------- 2 1.0 3.1 32 32
- 0.356 1 2 cbr 1000 ------- 2 1.0 3.1 32 32
r 0.358 2 3 cbr 1000 ------- 2 1.0 3.1 27 27
r 0.364 1 2 cbr 1000 ------- 2 1.0 3.1 30 30
+ 0.364 2 3 cbr 1000 ------- 2 1.0 3.1 30 30
- 0.364 2 3 cbr 1000 ------- 2 1.0 3.1 30 30
+ 0.364 1 2 cbr 1000 ------- 2 1.0 3.1 33 33
- 0.364 1 2 cbr 1000 ------- 2 1.0 3.1 33 33
r 0.366 2 3 cbr 1000 ------- 2 1.0 3.1 28 28
r 0.372 1 2 cbr 1000 ------- 2 1.0 3.1 31 31
+ 0.372 2 3 cbr 1000 ------- 2 1.0 3.1 31 31
- 0.372 2 3 cbr 1000 ------- 2 1.0 3.1 31 31
+ 0.372 1 2 cbr 1000 ------- 2 1.0 3.1 34 34
- 0.372 1 2 cbr 1000 ------- 2 1.0 3.1 34 34
r 0.374 2 3 cbr 1000 ------- 2 1.0 3.1 29 29
r 0.38 1 2 cbr 1000 ------- 2 1.0 3.1 32 32
+ 0.38 2 3 cbr 1000 ------- 2 1.0 3.1 32 32
- 0.38 2 3 cbr 1000 ------- 2 1.0 3.1 32 32
+ 0.38 1 2 cbr 1000 ------- 2 1.0 3.1 35 35
- 0.38 1 2 cbr 1000 ------- 2 1.0 3.1 35 35
r 0.382 2 3 cbr 1000 ------- 2 1.0 3.1 30 30
r 0.388 1 2 cbr 1000 ------- 2 1.0 3.1 33 33
+ 0.388 2 3 cbr 1000 ------- 2 1.0 3.1 33 33
- 0.388 2 3 cbr 1000 ------- 2 1.0 3.1 33 33
+ 0.388 1 2 cbr 1000 ------- 2 1.0 3.1 36 36
- 0.388 1 2 cbr 1000 ------- 2 1.0 3.1 36 36
r 0.39 2 3 cbr 1000 ------- 2 1.0 3.1 31 31
r 0.396 1 2 cbr 1000 ------- 2 1.0 3.1 34 34
+ 0.396 2 3 cbr 1000 ------- 2 1.0 3.1 34 34
- 0.396 2 3 cbr 1000 ------- 2 1.0 3.1 34 34
+ 0.396 1 2 cbr 1000 ------- 2 1.0 3.1 37 37
- 0.396 1 2 cbr 1000 ------- 2 1.0 3.1 37 37
r 0.398 2 3 cbr 1000 ------- 2 1.0 3.1 32 32
r 0.404 1 2 cbr 1000 ------- 2 1.0 3.1 35 35
+ 0.404 2 3 cbr 1000 ------- 2 1.0 3.1 35 35
- 0.404 2 3 cbr 1000 ------- 2 1.0 3.1 35 35
+ 0.404 1 2 cbr 1000 ------- 2 1.0 3.1 38 38
- 0.404 1 2 cbr 1000 ------- 2 1.0 3.1 38 38
r 0.406 2 3 cbr 1000 ------- 2 1.0 3.1 33 33
r 0.412 1 2 cbr 1000 ------- 2 1.0 3.1 36 36
+ 0.412 2 3 cbr 1000 ------- 2 1.0 3.1 36 36
- 0.412 2 3 cbr 1000 ------- 2 1.0 3.1 36 36
+ 0.412 1 2 cbr 1000 ------- 2 1.0 3.1 39 39
- 0.412 1 2 cbr 1000 ------- 2 1.0 3.1 39 39
r 0.414 2 3 cbr 1000 ------- 2 1.0 3.1 34 34
r 0.42 1 2 cbr 1000 ------- 2 1.0 3.1 37 37
+ 0.42 2 3 cbr 1000 ------- 2 1.0 3.1 37 37
- 0.42 2 3 cbr 1000 ------- 2 1.0 3.1 37 37
+ 0.42 1 2 cbr 1000 ------- 2 1.0 3.1 40 40
- 0.42 1 2 cbr 1000 ------- 2 1.0 3.1 40 40
r 0.422 2 3 cbr 1000 ------- 2 1.0 3.1 35 35
r 0.428 1 2 cbr 1000 ------- 2 1.0 3.1 38 38
+ 0.428 2 3 cbr 1000 ------- 2 1.0 3.1 38 38
- 0.428 2 3 cbr 1000 ------- 2 1.0 3.1 38 38
+ 0.428 1 2 cbr 1000 ------- 2 1.0 3.1 41 41
- 0.428 1 2 cbr 1000 ------- 2 1.0 3.1 41 41
r 0.43 2 3 cbr 1000 ------- 2 1.0 3.1 36 36
r 0.436 1 2 cbr 1000 ------- 2 1.0 3.1 39 39
+ 0.436 2 3 cbr 1000 ------- 2 1.0 3.1 39 39
- 0.436 2 3 cbr 1000 ------- 2 1.0 3.1 39 39
+ 0.436 1 2 cbr 1000 ------- 2 1.0 3.1 42 42
- 0.436 1 2 cbr 1000 ------- 2 1.0 3.1 42 42
r 0.438 2 3 cbr 1000 ------- 2 1.0 3.1 37 37
r 0.444 1 2 cbr 1000 ------- 2 1.0 3.1 40 40
+ 0.444 2 3 cbr 1000 ------- 2 1.0 3.1 40 40
- 0.444 2 3 cbr 1000 ------- 2 1.0 3.1 40 40
+ 0.444 1 2 cbr 1000 ------- 2 1.0 3.1 43 43
- 0.444 1 2 cbr 1000 ------- 2 1.0 3.1 43 43
r 0.446 2 3 cbr 1000 ------- 2 1.0 3.1 38 38
r 0.452 1 2 cbr 1000 ------- 2 1.0 3.1 41 41
+ 0.452 2 3 cbr 1000 ------- 2 1.0 3.1 41 41
- 0.452 2 3 cbr 1000 ------- 2 1.0 3.1 41 41
+ 0.452 1 2 cbr 1000 ------- 2 1.0 3.1 44 44
- 0.452 1 2 cbr 1000 ------- 2 1.0 3.1 44 44
r 0.454 2 3 cbr 1000 ------- 2 1.0 3.1 39 39
r 0.46 1 2 cbr 1000 ------- 2 1.0 3.1 42 42
+ 0.46 2 3 cbr 1000 ------- 2 1.0 3.1 42 42
- 0.46 2 3 cbr 1000 ------- 2 1.0 3.1 42 42
+ 0.46 1 2 cbr 1000 ------- 2 1.0 3.1 45 45
- 0.46 1 2 cbr 1000 ------- 2 1.0 3.1 45 45
r 0.462 2 3 cbr 1000 ------- 2 1.0 3.1 40 40
r 0.468 1 2 cbr 1000 ------- 2 1.0 3.1 43 43
+ 0.468 2 3 cbr 1000 ------- 2 1.0 3.1 43 43
- 0.468 2 3 cbr 1000 ------- 2 1.0 3.1 43 43
+ 0.468 1 2 cbr 1000 ------- 2 1.0 3.1 46 46
- 0.468 1 2 cbr 1000 ------- 2 1.0 3.1 46 46
r 0.47 2 3 cbr 1000 ------- 2 1.0 3.1 41 41
r 0.476 1 2 cbr 1000 ------- 2 1.0 3.1 44 44
+ 0.476 2 3 cbr 1000 ------- 2 1.0 3.1 44 44
- 0.476 2 3 cbr 1000 ------- 2 1.0 3.1 44 44
+ 0.476 1 2 cbr 1000 ------- 2 1.0 3.1 47 47
- 0.476 1 2 cbr 1000 ------- 2 1.0 3.1 47 47
r 0.478 2 3 cbr 1000 ------- 2 1.0 3.1 42 42
r 0.484 1 2 cbr 1000 ------- 2 1.0 3.1 45 45
+ 0.484 2 3 cbr 1000 ------- 2 1.0 3.1 45 45
- 0.484 2 3 cbr 1000 ------- 2 1.0 3.1 45 45
+ 0.484 1 2 cbr 1000 ------- 2 1.0 3.1 48 48
- 0.484 1 2 cbr 1000 ------- 2 1.0 3.1 48 48
r 0.486 2 3 cbr 1000 ------- 2 1.0 3.1 43 43
r 0.492 1 2 cbr 1000 ------- 2 1.0 3.1 46 46
+ 0.492 2 3 cbr 1000 ------- 2 1.0 3.1 46 46
- 0.492 2 3 cbr 1000 ------- 2 1.0 3.1 46 46
+ 0.492 1 2 cbr 1000 ------- 2 1.0 3.1 49 49
- 0.492 1 2 cbr 1000 ------- 2 1.0 3.1 49 49
r 0.494 2 3 cbr 1000 ------- 2 1.0 3.1 44 44
r 0.5 1 2 cbr 1000 ------- 2 1.0 3.1 47 47
+ 0.5 2 3 cbr 1000 ------- 2 1.0 3.1 47 47
- 0.5 2 3 cbr 1000 ------- 2 1.0 3.1 47 47
+ 0.5 1 2 cbr 1000 ------- 2 1.0 3.1 50 50
- 0.5 1 2 cbr 1000 ------- 2 1.0 3.1 50 50
r 0.502 2 3 cbr 1000 ------- 2 1.0 3.1 45 45
r 0.508 1 2 cbr 1000 ------- 2 1.0 3.1 48 48
+ 0.508 2 3 cbr 1000 ------- 2 1.0 3.1 48 48
- 0.508 2 3 cbr 1000 ------- 2 1.0 3.1 48 48
+ 0.508 1 2 cbr 1000 ------- 2 1.0 3.1 51 51
- 0.508 1 2 cbr 1000 ------- 2 1.0 3.1 51 51
r 0.51 2 3 cbr 1000 ------- 2 1.0 3.1 46 46
r 0.516 1 2 cbr 1000 ------- 2 1.0 3.1 49 49
+ 0.516 2 3 cbr 1000 ------- 2 1.0 3.1 49 49
- 0.516 2 3 cbr 1000 ------- 2 1.0 3.1 49 49
+ 0.516 1 2 cbr 1000 ------- 2 1.0 3.1 52 52
- 0.516 1 2 cbr 1000 ------- 2 1.0 3.1 52 52
r 0.518 2 3 cbr 1000 ------- 2 1.0 3.1 47 47
r 0.524 1 2 cbr 1000 ------- 2 1.0 3.1 50 50
+ 0.524 2 3 cbr 1000 ------- 2 1.0 3.1 50 50
- 0.524 2 3 cbr 1000 ------- 2 1.0 3.1 50 50
+ 0.524 1 2 cbr 1000 ------- 2 1.0 3.1 53 53
- 0.524 1 2 cbr 1000 ------- 2 1.0 3.1 53 53
r 0.526 2 3 cbr 1000 ------- 2 1.0 3.1 48 48
r 0.532 1 2 cbr 1000 ------- 2 1.0 3.1 51 51
+ 0.532 2 3 cbr 1000 ------- 2 1.0 3.1 51 51
- 0.532 2 3 cbr 1000 ------- 2 1.0 3.1 51 51
+ 0.532 1 2 cbr 1000 ------- 2 1.0 3.1 54 54
- 0.532 1 2 cbr 1000 ------- 2 1.0 3.1 54 54
r 0.534 2 3 cbr 1000 ------- 2 1.0 3.1 49 49
r 0.54 1 2 cbr 1000 ------- 2 1.0 3.1 52 52
+ 0.54 2 3 cbr 1000 ------- 2 1.0 3.1 52 52
- 0.54 2 3 cbr 1000 ------- 2 1.0 3.1 52 52
+ 0.54 1 2 cbr 1000 ------- 2 1.0 3.1 55 55
- 0.54 1 2 cbr 1000 ------- 2 1.0 3.1 55 55
r 0.542 2 3 cbr 1000 ------- 2 1.0 3.1 50 50
r 0.548 1 2 cbr 1000 ------- 2 1.0 3.1 53 53
+ 0.548 2 3 cbr 1000 ------- 2 1.0 3.1 53 53
- 0.548 2 3 cbr 1000 ------- 2 1.0 3.1 53 53
+ 0.548 1 2 cbr 1000 ------- 2 1.0 3.1 56 56
- 0.548 1 2 cbr 1000 ------- 2 1.0 3.1 56 56
r 0.55 2 3 cbr 1000 ------- 2 1.0 3.1 51 51
r 0.556 1 2 cbr 1000 ------- 2 1.0 3.1 54 54
+ 0.556 2 3 cbr 1000 ------- 2 1.0 3.1 54 54
- 0.556 2 3 cbr 1000 ------- 2 1.0 3.1 54 54
+ 0.556 1 2 cbr 1000 ------- 2 1.0 3.1 57 57
- 0.556 1 2 cbr 1000 ------- 2 1.0 3.1 57 57
r 0.558 2 3 cbr 1000 ------- 2 1.0 3.1 52 52
r 0.564 1 2 cbr 1000 ------- 2 1.0 3.1 55 55
+ 0.564 2 3 cbr 1000 ------- 2 1.0 3.1 55 55
- 0.564 2 3 cbr 1000 ------- 2 1.0 3.1 55 55
+ 0.564 1 2 cbr 1000 ------- 2 1.0 3.1 58 58
- 0.564 1 2 cbr 1000 ------- 2 1.0 3.1 58 58
r 0.566 2 3 cbr 1000 ------- 2 1.0 3.1 53 53
r 0.572 1 2 cbr 1000 ------- 2 1.0 3.1 56 56
+ 0.572 2 3 cbr 1000 ------- 2 1.0 3.1 56 56
- 0.572 2 3 cbr 1000 ------- 2 1.0 3.1 56 56
+ 0.572 1 2 cbr 1000 ------- 2 1.0 3.1 59 59
- 0.572 1 2 cbr 1000 ------- 2 1.0 3.1 59 59
r 0.574 2 3 cbr 1000 ------- 2 1.0 3.1 54 54
r 0.58 1 2 cbr 1000 ------- 2 1.0 3.1 57 57
+ 0.58 2 3 cbr 1000 ------- 2 1.0 3.1 57 57
- 0.58 2 3 cbr 1000 ------- 2 1.0 3.1 57 57
+ 0.58 1 2 cbr 1000 ------- 2 1.0 3.1 60 60
- 0.58 1 2 cbr 1000 ------- 2 1.0 3.1 60 60
r 0.582 2 3 cbr 1000 ------- 2 1.0 3.1 55 55
r 0.588 1 2 cbr 1000 ------- 2 1.0 3.1 58 58
+ 0.588 2 3 cbr 1000 ------- 2 1.0 3.1 58 58
- 0.588 2 3 cbr 1000 ------- 2 1.0 3.1 58 58
+ 0.588 1 2 cbr 1000 ------- 2 1.0 3.1 61 61
- 0.588 1 2 cbr 1000 ------- 2 1.0 3.1 61 61
r 0.59 2 3 cbr 1000 ------- 2 1.0 3.1 56 56
r 0.596 1 2 cbr 1000 ------- 2 1.0 3.1 59 59
+ 0.596 2 3 cbr 1000 ------- 2 1.0 3.1 59 59
- 0.596 2 3 cbr 1000 ------- 2 1.0 3.1 59 59
+ 0.596 1 2 cbr 1000 ------- 2 1.0 3.1 62 62
- 0.596 1 2 cbr 1000 ------- 2 1.0 3.1 62 62
r 0.598 2 3 cbr 1000 ------- 2 1.0 3.1 57 57
r 0.604 1 2 cbr 1000 ------- 2 1.0 3.1 60 60
+ 0.604 2 3 cbr 1000 ------- 2 1.0 3.1 60 60
- 0.604 2 3 cbr 1000 ------- 2 1.0 3.1 60 60
+ 0.604 1 2 cbr 1000 ------- 2 1.0 3.1 63 63
- 0.604 1 2 cbr 1000 ------- 2 1.0 3.1 63 63
r 0.606 2 3 cbr 1000 ------- 2 1.0 3.1 58 58
r 0.612 1 2 cbr 1000 ------- 2 1.0 3.1 61 61
+ 0.612 2 3 cbr 1000 ------- 2 1.0 3.1 61 61
- 0.612 2 3 cbr 1000 ------- 2 1.0 3.1 61 61
+ 0.612 1 2 cbr 1000 ------- 2 1.0 3.1 64 64
- 0.612 1 2 cbr 1000 ------- 2 1.0 3.1 64 64
r 0.614 2 3 cbr 1000 ------- 2 1.0 3.1 59 59
r 0.62 1 2 cbr 1000 ------- 2 1.0 3.1 62 62
+ 0.62 2 3 cbr 1000 ------- 2 1.0 3.1 62 62
- 0.62 2 3 cbr 1000 ------- 2 1.0 3.1 62 62
+ 0.62 1 2 cbr 1000 ------- 2 1.0 3.1 65 65
- 0.62 1 2 cbr 1000 ------- 2 1.0 3.1 65 65
r 0.622 2 3 cbr 1000 ------- 2 1.0 3.1 60 60
r 0.628 1 2 cbr 1000 ------- 2 1.0 3.1 63 63
+ 0.628 2 3 cbr 1000 ------- 2 1.0 3.1 63 63
- 0.628 2 3 cbr 1000 ------- 2 1.0 3.1 63 63
+ 0.628 1 2 cbr 1000 ------- 2 1.0 3.1 66 66
- 0.628 1 2 cbr 1000 ------- 2 1.0 3.1 66 66
r 0.63 2 3 cbr 1000 ------- 2 1.0 3.1 61 61
r 0.636 1 2 cbr 1000 ------- 2 1.0 3.1 64 64
+ 0.636 2 3 cbr 1000 ------- 2 1.0 3.1 64 64
- 0.636 2 3 cbr 1000 ------- 2 1.0 3.1 64 64
+ 0.636 1 2 cbr 1000 ------- 2 1.0 3.1 67 67
- 0.636 1 2 cbr 1000 ------- 2 1.0 3.1 67 67
r 0.638 2 3 cbr 1000 ------- 2 1.0 3.1 62 62
r 0.644 1 2 cbr 1000 ------- 2 1.0 3.1 65 65
+ 0.644 2 3 cbr 1000 ------- 2 1.0 3.1 65 65
- 0.644 2 3 cbr 1000 ------- 2 1.0 3.1 65 65
+ 0.644 1 2 cbr 1000 ------- 2 1.0 3.1 68 68
- 0.644 1 2 cbr 1000 ------- 2 1.0 3.1 68 68
r 0.646 2 3 cbr 1000 ------- 2 1.0 3.1 63 63
r 0.652 1 2 cbr 1000 ------- 2 1.0 3.1 66 66
+ 0.652 2 3 cbr 1000 ------- 2 1.0 3.1 66 66
- 0.652 2 3 cbr 1000 ------- 2 1.0 3.1 66 66
+ 0.652 1 2 cbr 1000 ------- 2 1.0 3.1 69 69
- 0.652 1 2 cbr 1000 ------- 2 1.0 3.1 69 69
r 0.654 2 3 cbr 1000 ------- 2 1.0 3.1 64 64
r 0.66 1 2 cbr 1000 ------- 2 1.0 3.1 67 67
+ 0.66 2 3 cbr 1000 ------- 2 1.0 3.1 67 67
- 0.66 2 3 cbr 1000 ------- 2 1.0 3.1 67 67
+ 0.66 1 2 cbr 1000 ------- 2 1.0 3.1 70 70
- 0.66 1 2 cbr 1000 ------- 2 1.0 3.1 70 70
r 0.662 2 3 cbr 1000 ------- 2 1.0 3.1 65 65
r 0.668 1 2 cbr 1000 ------- 2 1.0 3.1 68 68
+ 0.668 2 3 cbr 1000 ------- 2 1.0 3.1 68 68
- 0.668 2 3 cbr 1000 ------- 2 1.0 3.1 68 68
+ 0.668 1 2 cbr 1000 ------- 2 1.0 3.1 71 71
- 0.668 1 2 cbr 1000 ------- 2 1.0 3.1 71 71
r 0.67 2 3 cbr 1000 ------- 2 1.0 3.1 66 66
r 0.676 1 2 cbr 1000 ------- 2 1.0 3.1 69 69
+ 0.676 2 3 cbr 1000 ------- 2 1.0 3.1 69 69
- 0.676 2 3 cbr 1000 ------- 2 1.0 3.1 69 69
+ 0.676 1 2 cbr 1000 ------- 2 1.0 3.1 72 72
- 0.676 1 2 cbr 1000 ------- 2 1.0 3.1 72 72
r 0.678 2 3 cbr 1000 ------- 2 1.0 3.1 67 67
r 0.684 1 2 cbr 1000 ------- 2 1.0 3.1 70 70
+ 0.684 2 3 cbr 1000 ------- 2 1.0 3.1 70 70
- 0.684 2 3 cbr 1000 ------- 2 1.0 3.1 70 70
+ 0.684 1 2 cbr 1000 ------- 2 1.0 3.1 73 73
- 0.684 1 2 cbr 1000 ------- 2 1.0 3.1 73 73
r 0.686 2 3 cbr 1000 ------- 2 1.0 3.1 68 68
r 0.692 1 2 cbr 1000 ------- 2 1.0 3.1 71 71
+ 0.692 2 3 cbr 1000 ------- 2 1.0 3.1 71 71
- 0.692 2 3 cbr 1000 ------- 2 1.0 3.1 71 71
+ 0.692 1 2 cbr 1000 ------- 2 1.0 3.1 74 74
- 0.692 1 2 cbr 1000 ------- 2 1.0 3.1 74 74
r 0.694 2 3 cbr 1000 ------- 2 1.0 3.1 69 69
r 0.7 1 2 cbr 1000 ------- 2 1.0 3.1 72 72
+ 0.7 2 3 cbr 1000 ------- 2 1.0 3.1 72 72
- 0.7 2 3 cbr 1000 ------- 2 1.0 3.1 72 72
+ 0.7 1 2 cbr 1000 ------- 2 1.0 3.1 75 75
- 0.7 1 2 cbr 1000 ------- 2 1.0 3.1 75 75
r 0.702 2 3 cbr 1000 ------- 2 1.0 3.1 70 70
r 0.708 1 2 cbr 1000 ------- 2 1.0 3.1 73 73
+ 0.708 2 3 cbr 1000 ------- 2 1.0 3.1 73 73
- 0.708 2 3 cbr 1000 ------- 2 1.0 3.1 73 73
+ 0.708 1 2 cbr 1000 ------- 2 1.0 3.1 76 76
- 0.708 1 2 cbr 1000 ------- 2 1.0 3.1 76 76
r 0.71 2 3 cbr 1000 ------- 2 1.0 3.1 71 71
r 0.716 1 2 cbr 1000 ------- 2 1.0 3.1 74 74
+ 0.716 2 3 cbr 1000 ------- 2 1.0 3.1 74 74
- 0.716 2 3 cbr 1000 ------- 2 1.0 3.1 74 74
+ 0.716 1 2 cbr 1000 ------- 2 1.0 3.1 77 77
- 0.716 1 2 cbr 1000 ------- 2 1.0 3.1 77 77
r 0.718 2 3 cbr 1000 ------- 2 1.0 3.1 72 72
r 0.724 1 2 cbr 1000 ------- 2 1.0 3.1 75 75
+ 0.724 2 3 cbr 1000 ------- 2 1.0 3.1 75 75
- 0.724 2 3 cbr 1000 ------- 2 1.0 3.1 75 75
+ 0.724 1 2 cbr 1000 ------- 2 1.0 3.1 78 78
- 0.724 1 2 cbr 1000 ------- 2 1.0 3.1 78 78
r 0.726 2 3 cbr 1000 ------- 2 1.0 3.1 73 73
r 0.732 1 2 cbr 1000 ------- 2 1.0 3.1 76 76
+ 0.732 2 3 cbr 1000 ------- 2 1.0 3.1 76 76
- 0.732 2 3 cbr 1000 ------- 2 1.0 3.1 76 76
+ 0.732 1 2 cbr 1000 ------- 2 1.0 3.1 79 79
- 0.732 1 2 cbr 1000 ------- 2 1.0 3.1 79 79
r 0.734 2 3 cbr 1000 ------- 2 1.0 3.1 74 74
r 0.74 1 2 cbr 1000 ------- 2 1.0 3.1 77 77
+ 0.74 2 3 cbr 1000 ------- 2 1.0 3.1 77 77
- 0.74 2 3 cbr 1000 ------- 2 1.0 3.1 77 77
+ 0.74 1 2 cbr 1000 ------- 2 1.0 3.1 80 80
- 0.74 1 2 cbr 1000 ------- 2 1.0 3.1 80 80
r 0.742 2 3 cbr 1000 ------- 2 1.0 3.1 75 75
r 0.748 1 2 cbr 1000 ------- 2 1.0 3.1 78 78
+ 0.748 2 3 cbr 1000 ------- 2 1.0 3.1 78 78
- 0.748 2 3 cbr 1000 ------- 2 1.0 3.1 78 78
+ 0.748 1 2 cbr 1000 ------- 2 1.0 3.1 81 81
- 0.748 1 2 cbr 1000 ------- 2 1.0 3.1 81 81
r 0.75 2 3 cbr 1000 ------- 2 1.0 3.1 76 76
r 0.756 1 2 cbr 1000 ------- 2 1.0 3.1 79 79
+ 0.756 2 3 cbr 1000 ------- 2 1.0 3.1 79 79
- 0.756 2 3 cbr 1000 ------- 2 1.0 3.1 79 79
+ 0.756 1 2 cbr 1000 ------- 2 1.0 3.1 82 82
- 0.756 1 2 cbr 1000 ------- 2 1.0 3.1 82 82
r 0.758 2 3 cbr 1000 ------- 2 1.0 3.1 77 77
r 0.764 1 2 cbr 1000 ------- 2 1.0 3.1 80 80
+ 0.764 2 3 cbr 1000 ------- 2 1.0 3.1 80 80
- 0.764 2 3 cbr 1000 ------- 2 1.0 3.1 80 80
+ 0.764 1 2 cbr 1000 ------- 2 1.0 3.1 83 83
- 0.764 1 2 cbr 1000 ------- 2 1.0 3.1 83 83
r 0.766 2 3 cbr 1000 ------- 2 1.0 3.1 78 78
r 0.772 1 2 cbr 1000 ------- 2 1.0 3.1 81 81
+ 0.772 2 3 cbr 1000 ------- 2 1.0 3.1 81 81
- 0.772 2 3 cbr 1000 ------- 2 1.0 3.1 81 81
+ 0.772 1 2 cbr 1000 ------- 2 1.0 3.1 84 84
- 0.772 1 2 cbr 1000 ------- 2 1.0 3.1 84 84
r 0.774 2 3 cbr 1000 ------- 2 1.0 3.1 79 79
r 0.78 1 2 cbr 1000 ------- 2 1.0 3.1 82 82
+ 0.78 2 3 cbr 1000 ------- 2 1.0 3.1 82 82
- 0.78 2 3 cbr 1000 ------- 2 1.0 3.1 82 82
+ 0.78 1 2 cbr 1000 ------- 2 1.0 3.1 85 85
- 0.78 1 2 cbr 1000 ------- 2 1.0 3.1 85 85
r 0.782 2 3 cbr 1000 ------- 2 1.0 3.1 80 80
r 0.788 1 2 cbr 1000 ------- 2 1.0 3.1 83 83
+ 0.788 2 3 cbr 1000 ------- 2 1.0 3.1 83 83
- 0.788 2 3 cbr 1000 ------- 2 1.0 3.1 83 83
+ 0.788 1 2 cbr 1000 ------- 2 1.0 3.1 86 86
- 0.788 1 2 cbr 1000 ------- 2 1.0 3.1 86 86
r 0.79 2 3 cbr 1000 ------- 2 1.0 3.1 81 81
r 0.796 1 2 cbr 1000 ------- 2 1.0 3.1 84 84
+ 0.796 2 3 cbr 1000 ------- 2 1.0 3.1 84 84
- 0.796 2 3 cbr 1000 ------- 2 1.0 3.1 84 84
+ 0.796 1 2 cbr 1000 ------- 2 1.0 3.1 87 87
- 0.796 1 2 cbr 1000 ------- 2 1.0 3.1 87 87
r 0.798 2 3 cbr 1000 ------- 2 1.0 3.1 82 82
r 0.804 1 2 cbr 1000 ------- 2 1.0 3.1 85 85
+ 0.804 2 3 cbr 1000 ------- 2 1.0 3.1 85 85
- 0.804 2 3 cbr 1000 ------- 2 1.0 3.1 85 85
+ 0.804 1 2 cbr 1000 ------- 2 1.0 3.1 88 88
- 0.804 1 2 cbr 1000 ------- 2 1.0 3.1 88 88
r 0.806 2 3 cbr 1000 ------- 2 1.0 3.1 83 83
r 0.812 1 2 cbr 1000 ------- 2 1.0 3.1 86 86
+ 0.812 2 3 cbr 1000 ------- 2 1.0 3.1 86 86
- 0.812 2 3 cbr 1000 ------- 2 1.0 3.1 86 86
+ 0.812 1 2 cbr 1000 ------- 2 1.0 3.1 89 89
- 0.812 1 2 cbr 1000 ------- 2 1.0 3.1 89 89
r 0.814 2 3 cbr 1000 ------- 2 1.0 3.1 84 84
r 0.82 1 2 cbr 1000 ------- 2 1.0 3.1 87 87
+ 0.82 2 3 cbr 1000 ------- 2 1.0 3.1 87 87
- 0.82 2 3 cbr 1000 ------- 2 1.0 3.1 87 87
+ 0.82 1 2 cbr 1000 ------- 2 1.0 3.1 90 90
- 0.82 1 2 cbr 1000 ------- 2 1.0 3.1 90 90
r 0.822 2 3 cbr 1000 ------- 2 1.0 3.1 85 85
r 0.828 1 2 cbr 1000 ------- 2 1.0 3.1 88 88
+ 0.828 2 3 cbr 1000 ------- 2 1.0 3.1 88 88
- 0.828 2 3 cbr 1000 ------- 2 1.0 3.1 88 88
+ 0.828 1 2 cbr 1000 ------- 2 1.0 3.1 91 91
- 0.828 1 2 cbr 1000 ------- 2 1.0 3.1 91 91
r 0.83 2 3 cbr 1000 ------- 2 1.0 3.1 86 86
r 0.836 1 2 cbr 1000 ------- 2 1.0 3.1 89 89
+ 0.836 2 3 cbr 1000 ------- 2 1.0 3.1 89 89
- 0.836 2 3 cbr 1000 ------- 2 1.0 3.1 89 89
+ 0.836 1 2 cbr 1000 ------- 2 1.0 3.1 92 92
- 0.836 1 2 cbr 1000 ------- 2 1.0 3.1 92 92
r 0.838 2 3 cbr 1000 ------- 2 1.0 3.1 87 87
r 0.844 1 2 cbr 1000 ------- 2 1.0 3.1 90 90
+ 0.844 2 3 cbr 1000 ------- 2 1.0 3.1 90 90
- 0.844 2 3 cbr 1000 ------- 2 1.0 3.1 90 90
+ 0.844 1 2 cbr 1000 ------- 2 1.0 3.1 93 93
- 0.844 1 2 cbr 1000 ------- 2 1.0 3.1 93 93
r 0.846 2 3 cbr 1000 ------- 2 1.0 3.1 88 88
r 0.852 1 2 cbr 1000 ------- 2 1.0 3.1 91 91
+ 0.852 2 3 cbr 1000 ------- 2 1.0 3.1 91 91
- 0.852 2 3 cbr 1000 ------- 2 1.0 3.1 91 91
+ 0.852 1 2 cbr 1000 ------- 2 1.0 3.1 94 94
- 0.852 1 2 cbr 1000 ------- 2 1.0 3.1 94 94
r 0.854 2 3 cbr 1000 ------- 2 1.0 3.1 89 89
r 0.86 1 2 cbr 1000 ------- 2 1.0 3.1 92 92
+ 0.86 2 3 cbr 1000 ------- 2 1.0 3.1 92 92
- 0.86 2 3 cbr 1000 ------- 2 1.0 3.1 92 92
+ 0.86 1 2 cbr 1000 ------- 2 1.0 3.1 95 95
- 0.86 1 2 cbr 1000 ------- 2 1.0 3.1 95 95
r 0.862 2 3 cbr 1000 ------- 2 1.0 3.1 90 90
r 0.868 1 2 cbr 1000 ------- 2 1.0 3.1 93 93
+ 0.868 2 3 cbr 1000 ------- 2 1.0 3.1 93 93
- 0.868 2 3 cbr 1000 ------- 2 1.0 3.1 93 93
+ 0.868 1 2 cbr 1000 ------- 2 1.0 3.1 96 96
- 0.868 1 2 cbr 1000 ------- 2 1.0 3.1 96 96
r 0.87 2 3 cbr 1000 ------- 2 1.0 3.1 91 91
r 0.876 1 2 cbr 1000 ------- 2 1.0 3.1 94 94
+ 0.876 2 3 cbr 1000 ------- 2 1.0 3.1 94 94
- 0.876 2 3 cbr 1000 ------- 2 1.0 3.1 94 94
+ 0.876 1 2 cbr 1000 ------- 2 1.0 3.1 97 97
- 0.876 1 2 cbr 1000 ------- 2 1.0 3.1 97 97
r 0.878 2 3 cbr 1000 ------- 2 1.0 3.1 92 92
r 0.884 1 2 cbr 1000 ------- 2 1.0 3.1 95 95
+ 0.884 2 3 cbr 1000 ------- 2 1.0 3.1 95 95
- 0.884 2 3 cbr 1000 ------- 2 1.0 3.1 95 95
+ 0.884 1 2 cbr 1000 ------- 2 1.0 3.1 98 98
- 0.884 1 2 cbr 1000 ------- 2 1.0 3.1 98 98
r 0.886 2 3 cbr 1000 ------- 2 1.0 3.1 93 93
r 0.892 1 2 cbr 1000 ------- 2 1.0 3.1 96 96
+ 0.892 2 3 cbr 1000 ------- 2 1.0 3.1 96 96
- 0.892 2 3 cbr 1000 ------- 2 1.0 3.1 96 96
+ 0.892 1 2 cbr 1000 ------- 2 1.0 3.1 99 99
- 0.892 1 2 cbr 1000 ------- 2 1.0 3.1 99 99
r 0.894 2 3 cbr 1000 ------- 2 1.0 3.1 94 94
r 0.9 1 2 cbr 1000 ------- 2 1.0 3.1 97 97
+ 0.9 2 3 cbr 1000 ------- 2 1.0 3.1 97 97
- 0.9 2 3 cbr 1000 ------- 2 1.0 3.1 97 97
+ 0.9 1 2 cbr 1000 ------- 2 1.0 3.1 100 100
- 0.9 1 2 cbr 1000 ------- 2 1.0 3.1 100 100
r 0.902 2 3 cbr 1000 ------- 2 1.0 3.1 95 95
r 0.908 1 2 cbr 1000 ------- 2 1.0 3.1 98 98
+ 0.908 2 3 cbr 1000 ------- 2 1.0 3.1 98 98
- 0.908 2 3 cbr 1000 ------- 2 1.0 3.1 98 98
+ 0.908 1 2 cbr 1000 ------- 2 1.0 3.1 101 101
- 0.908 1 2 cbr 1000 ------- 2 1.0 3.1 101 101
r 0.91 2 3 cbr 1000 ------- 2 1.0 3.1 96 96
r 0.916 1 2 cbr 1000 ------- 2 1.0 3.1 99 99
+ 0.916 2 3 cbr 1000 ------- 2 1.0 3.1 99 99
- 0.916 2 3 cbr 1000 ------- 2 1.0 3.1 99 99
+ 0.916 1 2 cbr 1000 ------- 2 1.0 3.1 102 102
- 0.916 1 2 cbr 1000 ------- 2 1.0 3.1 102 102
r 0.918 2 3 cbr 1000 ------- 2 1.0 3.1 97 97
r 0.924 1 2 cbr 1000 ------- 2 1.0 3.1 100 100
+ 0.924 2 3 cbr 1000 ------- 2 1.0 3.1 100 100
- 0.924 2 3 cbr 1000 ------- 2 1.0 3.1 100 100
+ 0.924 1 2 cbr 1000 ------- 2 1.0 3.1 103 103
- 0.924 1 2 cbr 1000 ------- 2 1.0 3.1 103 103
r 0.926 2 3 cbr 1000 ------- 2 1.0 3.1 98 98
r 0.932 1 2 cbr 1000 ------- 2 1.0 3.1 101 101
+ 0.932 2 3 cbr 1000 ------- 2 1.0 3.1 101 101
- 0.932 2 3 cbr 1000 ------- 2 1.0 3.1 101 101
+ 0.932 1 2 cbr 1000 ------- 2 1.0 3.1 104 104
- 0.932 1 2 cbr 1000 ------- 2 1.0 3.1 104 104
r 0.934 2 3 cbr 1000 ------- 2 1.0 3.1 99 99
r 0.94 1 2 cbr 1000 ------- 2 1.0 3.1 102 102
+ 0.94 2 3 cbr 1000 ------- 2 1.0 3.1 102 102
- 0.94 2 3 cbr 1000 ------- 2 1.0 3.1 102 102
+ 0.94 1 2 cbr 1000 ------- 2 1.0 3.1 105 105
- 0.94 1 2 cbr 1000 ------- 2 1.0 3.1 105 105
r 0.942 2 3 cbr 1000 ------- 2 1.0 3.1 100 100
r 0.948 1 2 cbr 1000 ------- 2 1.0 3.1 103 103
+ 0.948 2 3 cbr 1000 ------- 2 1.0 3.1 103 103
- 0.948 2 3 cbr 1000 ------- 2 1.0 3.1 103 103
+ 0.948 1 2 cbr 1000 ------- 2 1.0 3.1 106 106
- 0.948 1 2 cbr 1000 ------- 2 1.0 3.1 106 106
r 0.95 2 3 cbr 1000 ------- 2 1.0 3.1 101 101
r 0.956 1 2 cbr 1000 ------- 2 1.0 3.1 104 104
+ 0.956 2 3 cbr 1000 ------- 2 1.0 3.1 104 104
- 0.956 2 3 cbr 1000 ------- 2 1.0 3.1 104 104
+ 0.956 1 2 cbr 1000 ------- 2 1.0 3.1 107 107
- 0.956 1 2 cbr 1000 ------- 2 1.0 3.1 107 107
r 0.958 2 3 cbr 1000 ------- 2 1.0 3.1 102 102
r 0.964 1 2 cbr 1000 ------- 2 1.0 3.1 105 105
+ 0.964 2 3 cbr 1000 ------- 2 1.0 3.1 105 105
- 0.964 2 3 cbr 1000 ------- 2 1.0 3.1 105 105
+ 0.964 1 2 cbr 1000 ------- 2 1.0 3.1 108 108
- 0.964 1 2 cbr 1000 ------- 2 1.0 3.1 108 108
r 0.966 2 3 cbr 1000 ------- 2 1.0 3.1 103 103
r 0.972 1 2 cbr 1000 ------- 2 1.0 3.1 106 106
+ 0.972 2 3 cbr 1000 ------- 2 1.0 3.1 106 106
- 0.972 2 3 cbr 1000 ------- 2 1.0 3.1 106 106
+ 0.972 1 2 cbr 1000 ------- 2 1.0 3.1 109 109
- 0.972 1 2 cbr 1000 ------- 2 1.0 3.1 109 109
r 0.974 2 3 cbr 1000 ------- 2 1.0 3.1 104 104
r 0.98 1 2 cbr 1000 ------- 2 1.0 3.1 107 107
+ 0.98 2 3 cbr 1000 ------- 2 1.0 3.1 107 107
- 0.98 2 3 cbr 1000 ------- 2 1.0 3.1 107 107
+ 0.98 1 2 cbr 1000 ------- 2 1.0 3.1 110 110
- 0.98 1 2 cbr 1000 ------- 2 1.0 3.1 110 110
r 0.982 2 3 cbr 1000 ------- 2 1.0 3.1 105 105
r 0.988 1 2 cbr 1000 ------- 2 1.0 3.1 108 108
+ 0.988 2 3 cbr 1000 ------- 2 1.0 3.1 108 108
- 0.988 2 3 cbr 1000 ------- 2 1.0 3.1 108 108
+ 0.988 1 2 cbr 1000 ------- 2 1.0 3.1 111 111
- 0.988 1 2 cbr 1000 ------- 2 1.0 3.1 111 111
r 0.99 2 3 cbr 1000 ------- 2 1.0 3.1 106 106
r 0.996 1 2 cbr 1000 ------- 2 1.0 3.1 109 109
+ 0.996 2 3 cbr 1000 ------- 2 1.0 3.1 109 109
- 0.996 2 3 cbr 1000 ------- 2 1.0 3.1 109 109
+ 0.996 1 2 cbr 1000 ------- 2 1.0 3.1 112 112
- 0.996 1 2 cbr 1000 ------- 2 1.0 3.1 112 112
r 0.998 2 3 cbr 1000 ------- 2 1.0 3.1 107 107
+ 1 0 2 tcp 40 ------- 1 0.0 3.0 0 113
- 1 0 2 tcp 40 ------- 1 0.0 3.0 0 113
r 1.004 1 2 cbr 1000 ------- 2 1.0 3.1 110 110
+ 1.004 2 3 cbr 1000 ------- 2 1.0 3.1 110 110
- 1.004 2 3 cbr 1000 ------- 2 1.0 3.1 110 110
+ 1.004 1 2 cbr 1000 ------- 2 1.0 3.1 113 114