V -t * -v 1.0a5 -a 0
A -t * -n 1 -p 0 -o 0x7fffffff -c 30 -a 1
A -t * -h 1 -m 1073741823 -s 0
c -t * -i 1 -n Green
c -t * -i 2 -n Red
n -t * -a 4 -s 4 -S UP -v circle -c black -i black
n -t * -a 0 -s 0 -S UP -v circle -c black -i black
n -t * -a 5 -s 5 -S UP -v circle -c black -i black
n -t * -a 1 -s 1 -S UP -v circle -c black -i black
n -t * -a 2 -s 2 -S UP -v circle -c black -i black
n -t * -a 3 -s 3 -S UP -v circle -c black -i black
l -t * -s 0 -d 2 -S UP -r 2000000 -D 0.01 -c black -o right-down
l -t * -s 1 -d 2 -S UP -r 2000000 -D 0.01 -c black -o right-up
l -t * -s 2 -d 3 -S UP -r 1000000 -D 0.02 -c black -o right
l -t * -s 3 -d 4 -S UP -r 2000000 -D 0.01 -c black -o right-up
l -t * -s 3 -d 5 -S UP -r 2000000 -D 0.01 -c black -o right-down
q -t * -s 3 -d 2 -a 0.5
q -t * -s 2 -d 3 -a 0.5
+ -t 0.2 -s 1 -d 2 -p cbr -e 210 -c 1 -i 0 -a 1 -x {1.0 5.0 0 ------- null}
- -t 0.2 -s 1 -d 2 -p cbr -e 210 -c 1 -i 0 -a 1 -x {1.0 5.0 0 ------- null}
h -t 0.2 -s 1 -d 2 -p cbr -e 210 -c 1 -i 0 -a 1 -x {1.0 5.0 -1 ------- null}
+ -t 0.20168 -s 1 -d 2 -p cbr -e 210 -c 1 -i 1 -a 1 -x {1.0 5.0 1 ------- null}
- -t 0.20168 -s 1 -d 2 -p cbr -e 210 -c 1 -i 1 -a 1 -x {1.0 5.0 1 ------- null}
h -t 0.20168 -s 1 -d 2 -p cbr -e 210 -c 1 -i 1 -a 1 -x {1.0 5.0 -1 ------- null}
+ -t 0.20336 -s 1 -d 2 -p cbr -e 210 -c 1 -i 2 -a 1 -x {1.0 5.0 2 ------- null}
- -t 0.20336 -s 1 -d 2 -p cbr -e 210 -c 1 -i 2 -a 1 -x {1.0 5.0 2 ------- null}
h -t 0.20336 -s 1 -d 2 -p cbr -e 210 -c 1 -i 2 -a 1 -x {1.0 5.0 -1 ------- null}
+ -t 0.20504 -s 1 -d 2 -p cbr -e 210 -c 1 -i 3 -a 1 -x {1.0 5.0 3 ------- null}
- -t 0.20504 -s 1 -d 2 -p cbr -e 210 -c 1 -i 3 -a 1 -x {1.0 5.0 3 ------- null}
h -t 0.20504 -s 1 -d 2 -p cbr -e 210 -c 1 -i 3 -a 1 -x {1.0 5.0 -1 ------- null}
+ -t 0.20672 -s 1 -d 2 -p cbr -e 210 -c 1 -i 4 -a 1 -x {1.0 5.0 4 ------- null}
- -t 0.20672 -s 1 -d 2 -p cbr -e 210 -c 1 -i 4 -a 1 -x {1.0 5.0 4 ------- null}
h -t 0.20672 -s 1 -d 2 -p cbr -e 210 -c 1 -i 4 -a 1 -x {1.0 5.0 -1 ------- null}
+ -t 0.2084 -s 1 -d 2 -p cbr -e 210 -c 1 -i 5 -a 1 -x {1.0 5.0 5 ------- null}
- -t 0.2084 -s 1 -d 2 -p cbr -e 210 -c 1 -i 5 -a 1 -x {1.0 5.0 5 ------- null}
h -t 0.2084 -s 1 -d 2 -p cbr -e 210 -c 1 -i 5 -a 1 -x {1.0 5.0 -1 ------- null}
+ -t 0.21008 -s 1 -d 2 -p cbr -e 210 -c 1 -i 6 -a 1 -x {1.0 5.0 6 ------- null}
- -t 0.21008 -s 1 -d 2 -p cbr -e 210 -c 1 -i 6 -a 1 -x {1.0 5.0 6 ------- null}
h -t 0.21008 -s 1 -d 2 -p cbr -e 210 -c 1 -i 6 -a 1 -x {1.0 5.0 -1 ------- null}
r -t 0.21084 -s 1 -d 2 -p cbr -e 210 -c 1 -i 0 -a 1 -x {1.0 5.0 0 ------- null}
+ -t 0.21084 -s 2 -d 3 -p cbr -e 210 -c 1 -i 0 -a 1 -x {1.0 5.0 0 ------- null}
- -t 0.21084 -s 2 -d 3 -p cbr -e 210 -c 1 -i 0 -a 1 -x {1.0 5.0 0 ------- null}
h -t 0.21084 -s 2 -d 3 -p cbr -e 210 -c 1 -i 0 -a 1 -x {1.0 5.0 -1 ------- null}
+ -t 0.21176 -s 1 -d 2 -p cbr -e 210 -c 1 -i 7 -a 1 -x {1.0 5.0 7 ------- null}
- -t 0.21176 -s 1 -d 2 -p cbr -e 210 -c 1 -i 7 -a 1 -x {1.0 5.0 7 ------- null}
h -t 0.21176 -s 1 -d 2 -p cbr -e 210 -c 1 -i 7 -a 1 -x {1.0 5.0 -1 ------- null}
r -t 0.21252 -s 1 -d 2 -p cbr -e 210 -c 1 -i 1 -a 1 -x {1.0 5.0 1 ------- null}
+ -t 0.21252 -s 2 -d 3 -p cbr -e 210 -c 1 -i 1 -a 1 -x {1.0 5.0 1 ------- null}
- -t 0.21252 -s 2 -d 3 -p cbr -e 210 -c 1 -i 1 -a 1 -x {1.0 5.0 1 ------- null}
h -t 0.21252 -s 2 -d 3 -p cbr -e 210 -c 1 -i 1 -a 1 -x {1.0 5.0 -1 ------- null}
+ -t 0.21344 -s 1 -d 2 -p cbr -e 210 -c 1 -i 8 -a 1 -x {1.0 5.0 8 ------- null}
- -t 0.21344 -s 1 -d 2 -p cbr -e 210 -c 1 -i 8 -a 1 -x {1.0 5.0 8 ------- null}
h -t 0.21344 -s 1 -d 2 -p cbr -e 210 -c 1 -i 8 -a 1 -x {1.0 5.0 -1 ------- null}
r -t 0.2142 -s 1 -d 2 -p cbr -e 210 -c 1 -i 2 -a 1 -x {1.0 5.0 2 ------- null}
+ -t 0.2142 -s 2 -d 3 -p cbr -e 210 -c 1 -i 2 -a 1 -x {1.0 5.0 2 ------- null}
- -t 0.2142 -s 2 -d 3 -p cbr -e 210 -c 1 -i 2 -a 1 -x {1.0 5.0 2 ------- null}
h -t 0.2142 -s 2 -d 3 -p cbr -e 210 -c 1 -i 2 -a 1 -x {1.0 5.0 -1 ------- null}
+ -t 0.21512 -s 1 -d 2 -p cbr -e 210 -c 1 -i 9 -a 1 -x {1.0 5.0 9 ------- null}
- -t 0.21512 -s 1 -d 2 -p cbr -e 210 -c 1 -i 9 -a 1 -x {1.0 5.0 9 ------- null}
h -t 0.21512 -s 1 -d 2 -p cbr -e 210 -c 1 -i 9 -a 1 -x {1.0 5.0 -1 ------- null}
r -t 0.21588 -s 1 -d 2 -p cbr -e 210 -c 1 -i 3 -a 1 -x {1.0 5.0 3 ------- null}
+ -t 0.21588 -s 2 -d 3 -p cbr -e 210 -c 1 -i 3 -a 1 -x {1.0 5.0 3 ------- null}
- -t 0.21588 -s 2 -d 3 -p cbr -e 210 -c 1 -i 3 -a 1 -x {1.0 5.0 3 ------- null}
h -t 0.21588 -s 2 -d 3 -p cbr -e 210 -c 1 -i 3 -a 1 -x {1.0 5.0 -1 ------- null}
+ -t 0.2168 -s 1 -d 2 -p cbr -e 210 -c 1 -i 10 -a 1 -x {1.0 5.0 10 ------- null}
- -t 0.2168 -s 1 -d 2 -p cbr -e 210 -c 1 -i 10 -a 1 -x {1.0 5.0 10 ------- null}
h -t 0.2168 -s 1 -d 2 -p cbr -e 210 -c 1 -i 10 -a 1 -x {1.0 5.0 -1 ------- null}
r -t 0.21756 -s 1 -d 2 -p cbr -e 210 -c 1 -i 4 -a 1 -x {1.0 5.0 4 ------- null}
+ -t 0.21756 -s 2 -d 3 -p cbr -e 210 -c 1 -i 4 -a 1 -x {1.0 5.0 4 ------- null}
- -t 0.21756 -s 2 -d 3 -p cbr -e 210 -c 1 -i 4 -a 1 -x {1.0 5.0 4 ------- null}
h -t 0.21756 -s 2 -d 3 -p cbr -e 210 -c 1 -i 4 -a 1 -x {1.0 5.0 -1 ------- null}
+ -t 0.21848 -s 1 -d 2 -p cbr -e 210 -c 1 -i 11 -a 1 -x {1.0 5.0 11 ------- null}
- -t 0.21848 -s 1 -d 2 -p cbr -e 210 -c 1 -i 11 -a 1 -x {1.0 5.0 11 ------- null}
h -t 0.21848 -s 1 -d 2 -p cbr -e 210 -c 1 -i 11 -a 1 -x {1.0 5.0 -1 ------- null}
r -t 0.21924 -s 1 -d 2 -p cbr -e 210 -c 1 -i 5 -a 1 -x {1.0 5.0 5 ------- null}
+ -t 0.21924 -s 2 -d 3 -p cbr -e 210 -c 1 -i 5 -a 1 -x {1.0 5.0 5 ------- null}
- -t 0.21924 -s 2 -d 3 -p cbr -e 210 -c 1 -i 5 -a 1 -x {1.0 5.0 5 ------- null}
h -t 0.21924 -s 2 -d 3 -p cbr -e 210 -c 1 -i 5 -a 1 -x {1.0 5.0 -1 ------- null}
+ -t 0.22016 -s 1 -d 2 -p cbr -e 210 -c 1 -i 12 -a 1 -x {1.0 5.0 12 ------- null}
- -t 0.22016 -s 1 -d 2 -p cbr -e 210 -c 1 -i 12 -a 1 -x {1.0 5.0 12 ------- null}
h -t 0.22016 -s 1 -d 2 -p cbr -e 210 -c 1 -i 12 -a 1 -x {1.0 5.0 -1 ------- null}
r -t 0.22092 -s 1 -d 2 -p cbr -e 210 -c 1 -i 6 -a 1 -x {1.0 5.0 6 ------- null}
+ -t 0.22092 -s 2 -d 3 -p cbr -e 210 -c 1 -i 6 -a 1 -x {1.0 5.0 6 ------- null}
- -t 0.22092 -s 2 -d 3 -p cbr -e 210 -c 1 -i 6 -a 1 -x {1.0 5.0 6 ------- null}
h -t 0.22092 -s 2 -d 3 -p cbr -e 210 -c 1 -i 6 -a 1 -x {1.0 5.0 -1 ------- null}
+ -t 0.22184 -s 1 -d 2 -p cbr -e 210 -c 1 -i 13 -a 1 -x {1.0 5.0 13 ------- null}
- -t 0.22184 -s 1 -d 2 -p cbr -e 210 -c 1 -i 13 -a 1 -x {1.0 5.0 13 ------- null}
h -t 0.22184 -s 1 -d 2 -p cbr -e 210 -c 1 -i 13 -a 1 -x {1.0 5.0 -1 ------- null}
r -t 0.2226 -s 1 -d 2 -p cbr -e 210 -c 1 -i 7 -a 1 -x {1.0 5.0 7 ------- null}
+ -t 0.2226 -s 2 -d 3 -p cbr -e 210 -c 1 -i 7 -a 1 -x {1.0 5.0 7 ------- null}
- -t 0.2226 -s 2 -d 3 -p cbr -e 210 -c 1 -i 7 -a 1 -x {1.0 5.0 7 ------- null}
h -t 0.2226 -s 2 -d 3 -p cbr -e 210 -c 1 -i 7 -a 1 -x {1.0 5.0 -1 ------- null}
+ -t 0.22352 -s 1 -d 2 -p cbr -e 210 -c 1 -i 14 -a 1 -x {1.0 5.0 14 ------- null}
- -t 0.22352 -s 1 -d 2 -p cbr -e 210 -c 1 -i 14 -a 1 -x {1.0 5.0 14 ------- null}
h -t 0.22352 -s 1 -d 2 -p cbr -e 210 -c 1 -i 14 -a 1 -x {1.0 5.0 -1 ------- null}
r -t 0.22428 -s 1 -d 2 -p cbr -e 210 -c 1 -i 8 -a 1 -x {1.0 5.0 8 ------- null}
+ -t 0.22428 -s 2 -d 3 -p cbr -e 210 -c 1 -i 8 -a 1 -x {1.0 5.0 8 ------- null}
- -t 0.22428 -s 2 -d 3 -p cbr -e 210 -c 1 -i 8 -a 1 -x {1.0 5.0 8 ------- null}
h -t 0.22428 -s 2 -d 3 -p cbr -e 210 -c 1 -i 8 -a 1 -x {1.0 5.0 -1 ------- null}
+ -t 0.2252 -s 1 -d 2 -p cbr -e 210 -c 1 -i 15 -a 1 -x {1.0 5.0 15 ------- null}
- -t 0.2252 -s 1 -d 2 -p cbr -e 210 -c 1 -i 15 -a 1 -x {1.0 5.0 15 ------- null}
h -t 0.2252 -s 1 -d 2 -p cbr -e 210 -c 1 -i 15 -a 1 -x {1.0 5.0 -1 ------- null}
r -t 0.22596 -s 1 -d 2 -p cbr -e 210 -c 1 -i 9 -a 1 -x {1.0 5.0 9 ------- null}
+ -t 0.22596 -s 2 -d 3 -p cbr -e 210 -c 1 -i 9 -a 1 -x {1.0 5.0 9 ------- null}
- -t 0.22596 -s 2 -d 3 -p cbr -e 210 -c 1 -i 9 -a 1 -x {1.0 5.0 9 ------- null}
h -t 0.22596 -s 2 -d 3 -p cbr -e 210 -c 1 -i 9 -a 1 -x {1.0 5.0 -1 ------- null}
+ -t 0.22688 -s 1 -d 2 -p cbr -e 210 -c 1 -i 16 -a 1 -x {1.0 5.0 16 ------- null}
- -t 0.22688 -s 1 -d 2 -p cbr -e 210 -c 1 -i 16 -a 1 -x {1.0 5.0 16 ------- null}
h -t 0.22688 -s 1 -d 2 -p cbr -e 210 -c 1 -i 16 -a 1 -x {1.0 5.0 -1 ------- null}
r -t 0.22764 -s 1 -d 2 -p cbr -e 210 -c 1 -i 10 -a 1 -x {1.0 5.0 10 ------- null}
+ -t 0.22764 -s 2 -d 3 -p cbr -e 210 -c 1 -i 10 -a 1 -x {1.0 5.0 10 ------- null}
- -t 0.22764 -s 2 -d 3 -p cbr -e 210 -c 1 -i 10 -a 1 -x {1.0 5.0 10 ------- null}
h -t 0.22764 -s 2 -d 3 -p cbr -e 210 -c 1 -i 10 -a 1 -x {1.0 5.0 -1 ------- null}
+ -t 0.22856 -s 1 -d 2 -p cbr -e 210 -c 1 -i 17 -a 1 -x {1.0 5.0 17 ------- null}
- -t 0.22856 -s 1 -d 2 -p cbr -e 210 -c 1 -i 17 -a 1 -x {1.0 5.0 17 ------- null}
h -t 0.22856 -s 1 -d 2 -p cbr -e 210 -c 1 -i 17 -a 1 -x {1.0 5.0 -1 ------- null}
r -t 0.22932 -s 1 -d 2 -p cbr -e 210 -c 1 -i 11 -a 1 -x {1.0 5.0 11 ------- null}
+ -t 0.22932 -s 2 -d 3 -p cbr -e 210 -c 1 -i 11 -a 1 -x {1.0 5.0 11 ------- null}
- -t 0.22932 -s 2 -d 3 -p cbr -e 210 -c 1 -i 11 -a 1 -x {1.0 5.0 11 ------- null}
h -t 0.22932 -s 2 -d 3 -p cbr -e 210 -c 1 -i 11 -a 1 -x {1.0 5.0 -1 ------- null}
+ -t 0.23024 -s 1 -d 2 -p cbr -e 210 -c 1 -i 18 -a 1 -x {1.0 5.0 18 ------- null}
- -t 0.23024 -s 1 -d 2 -p cbr -e 210 -c 1 -i 18 -a 1 -x {1.0 5.0 18 ------- null}
h -t 0.23024 -s 1 -d 2 -p cbr -e 210 -c 1 -i 18 -a 1 -x {1.0 5.0 -1 ------- null}
r -t 0.231 -s 1 -d 2 -p cbr -e 210 -c 1 -i 12 -a 1 -x {1.0 5.0 12 ------- null}
+ -t 0.231 -s 2 -d 3 -p cbr -e 210 -c 1 -i 12 -a 1 -x {1.0 5.0 12 ------- null}
- -t 0.231 -s 2 -d 3 -p cbr -e 210 -c 1 -i 12 -a 1 -x {1.0 5.0 12 ------- null}
h -t 0.231 -s 2 -d 3 -p cbr -e 210 -c 1 -i 12 -a 1 -x {1.0 5.0 -1 ------- null}
+ -t 0.23192 -s 1 -d 2 -p cbr -e 210 -c 1 -i 19 -a 1 -x {1.0 5.0 19 ------- null}
- -t 0.23192 -s 1 -d 2 -p cbr -e 210 -c 1 -i 19 -a 1 -x {1.0 5.0 19 ------- null}
h -t 0.23192 -s 1 -d 2 -p cbr -e 210 -c 1 -i 19 -a 1 -x {1.0 5.0 -1 ------- null}
r -t 0.23252 -s 2 -d 3 -p cbr -e 210 -c 1 -i 0 -a 1 -x {1.0 5.0 0 ------- null}
+ -t 0.23252 -s 3 -d 5 -p cbr -e 210 -c 1 -i 0 -a 1 -x {1.0 5.0 0 ------- null}
- -t 0.23252 -s 3 -d 5 -p cbr -e 210 -c 1 -i 0 -a 1 -x {1.0 5.0 0 ------- null}
h -t 0.23252 -s 3 -d 5 -p cbr -e 210 -c 1 -i 0 -a 1 -x {1.0 5.0 -1 ------- null}
r -t 0.23268 -s 1 -d 2 -p cbr -e 210 -c 1 -i 13 -a 1 -x {1.0 5.0 13 ------- null}
+ -t 0.23268 -s 2 -d 3 -p cbr -e 210 -c 1 -i 13 -a 1 -x {1.0 5.0 13 ------- null}
- -t 0.23268 -s 2 -d 3 -p cbr -e 210 -c 1 -i 13 -a 1 -x {1.0 5.0 13 ------- null}
h -t 0.23268 -s 2 -d 3 -p cbr -e 210 -c 1 -i 13 -a 1 -x {1.0 5.0 -1 ------- null}
+ -t 0.2336 -s 1 -d 2 -p cbr -e 210 -c 1 -i 20 -a 1 -x {1.0 5.0 20 ------- null}
- -t 0.2336 -s 1 -d 2 -p cbr -e 210 -c 1 -i 20 -a 1 -x {1.0 5.0 20 ------- null}
h -t 0.2336 -s 1 -d 2 -p cbr -e 210 -c 1 -i 20 -a 1 -x {1.0 5.0 -1 ------- null}
r -t 0.2342 -s 2 -d 3 -p cbr -e 210 -c 1 -i 1 -a 1 -x {1.0 5.0 1 ------- null}
+ -t 0.2342 -s 3 -d 5 -p cbr -e 210 -c 1 -i 1 -a 1 -x {1.0 5.0 1 ------- null}
- -t 0.2342 -s 3 -d 5 -p cbr -e 210 -c 1 -i 1 -a 1 -x {1.0 5.0 1 ------- null}
h -t 0.2342 -s 3 -d 5 -p cbr -e 210 -c 1 -i 1 -a 1 -x {1.0 5.0 -1 ------- null}
r -t 0.23436 -s 1 -d 2 -p cbr -e 210 -c 1 -i 14 -a 1 -x {1.0 5.0 14 ------- null}
+ -t 0.23436 -s 2 -d 3 -p cbr -e 210 -c 1 -i 14 -a 1 -x {1.0 5.0 14 ------- null}
- -t 0.23436 -s 2 -d 3 -p cbr -e 210 -c 1 -i 14 -a 1 -x {1.0 5.0 14 ------- null}
h -t 0.23436 -s 2 -d 3 -p cbr -e 210 -c 1 -i 14 -a 1 -x {1.0 5.0 -1 ------- null}
+ -t 0.23528 -s 1 -d 2 -p cbr -e 210 -c 1 -i 21 -a 1 -x {1.0 5.0 21 ------- null}
- -t 0.23528 -s 1 -d 2 -p cbr -e 210 -c 1 -i 21 -a 1 -x {1.0 5.0 21 ------- null}
h -t 0.23528 -s 1 -d 2 -p cbr -e 210 -c 1 -i 21 -a 1 -x {1.0 5.0 -1 ------- null}
r -t 0.23588 -s 2 -d 3 -p cbr -e 210 -c 1 -i 2 -a 1 -x {1.0 5.0 2 ------- null}
+ -t 0.23588 -s 3 -d 5 -p cbr -e 210 -c 1 -i 2 -a 1 -x {1.0 5.0 2 ------- null}
- -t 0.23588 -s 3 -d 5 -p cbr -e 210 -c 1 -i 2 -a 1 -x {1.0 5.0 2 ------- null}
h -t 0.23588 -s 3 -d 5 -p cbr -e 210 -c 1 -i 2 -a 1 -x {1.0 5.0 -1 ------- null}
r -t 0.23604 -s 1 -d 2 -p cbr -e 210 -c 1 -i 15 -a 1 -x {1.0 5.0 15 ------- null}
+ -t 0.23604 -s 2 -d 3 -p cbr -e 210 -c 1 -i 15 -a 1 -x {1.0 5.0 15 ------- null}
- -t 0.23604 -s 2 -d 3 -p cbr -e 210 -c 1 -i 15 -a 1 -x {1.0 5.0 15 ------- null}
h -t 0.23604 -s 2 -d 3 -p cbr -e 210 -c 1 -i 15 -a 1 -x {1.0 5.0 -1 ------- null}
+ -t 0.23696 -s 1 -d 2 -p cbr -e 210 -c 1 -i 22 -a 1 -x {1.0 5.0 22 ------- null}
- -t 0.23696 -s 1 -d 2 -p cbr -e 210 -c 1 -i 22 -a 1 -x {1.0 5.0 22 ------- null}
h -t 0.23696 -s 1 -d 2 -p cbr -e 210 -c 1 -i 22 -a 1 -x {1.0 5.0 -1 ------- null}
r -t 0.23756 -s 2 -d 3 -p cbr -e 210 -c 1 -i 3 -a 1 -x {1.0 5.0 3 ------- null}
+ -t 0.23756 -s 3 -d 5 -p cbr -e 210 -c 1 -i 3 -a 1 -x {1.0 5.0 3 ------- null}
- -t 0.23756 -s 3 -d 5 -p cbr -e 210 -c 1 -i 3 -a 1 -x {1.0 5.0 3 ------- null}
h -t 0.23756 -s 3 -d 5 -p cbr -e 210 -c 1 -i 3 -a 1 -x {1.0 5.0 -1 ------- null}
r -t 0.23772 -s 1 -d 2 -p cbr -e 210 -c 1 -i 16 -a 1 -x {1.0 5.0 16 ------- null}
+ -t 0.23772 -s 2 -d 3 -p cbr -e 210 -c 1 -i 16 -a 1 -x {1.0 5.0 16 ------- null}
- -t 0.23772 -s 2 -d 3 -p cbr -e 210 -c 1 -i 16 -a 1 -x {1.0 5.0 16 ------- null}
h -t 0.23772 -s 2 -d 3 -p cbr -e 210 -c 1 -i 16 -a 1 -x {1.0 5.0 -1 ------- null}
+ -t 0.23864 -s 1 -d 2 -p cbr -e 210 -c 1 -i 23 -a 1 -x {1.0 5.0 23 ------- null}
- -t 0.23864 -s 1 -d 2 -p cbr -e 210 -c 1 -i 23 -a 1 -x {1.0 5.0 23 ------- null}
h -t 0.23864 -s 1 -d 2 -p cbr -e 210 -c 1 -i 23 -a 1 -x {1.0 5.0 -1 ------- null}
r -t 0.23924 -s 2 -d 3 -p cbr -e 210 -c 1 -i 4 -a 1 -x {1.0 5.0 4 ------- null}
+ -t 0.23924 -s 3 -d 5 -p cbr -e 210 -c 1 -i 4 -a 1 -x {1.0 5.0 4 ------- null}
- -t 0.23924 -s 3 -d 5 -p cbr -e 210 -c 1 -i 4 -a 1 -x {1.0 5.0 4 ------- null}
h -t 0.23924 -s 3 -d 5 -p cbr -e 210 -c 1 -i 4 -a 1 -x {1.0 5.0 -1 ------- null}
r -t 0.2394 -s 1 -d 2 -p cbr -e 210 -c 1 -i 17 -a 1 -x {1.0 5.0 17 ------- null}
+ -t 0.2394 -s 2 -d 3 -p cbr -e 210 -c 1 -i 17 -a 1 -x {1.0 5.0 17 ------- null}
- -t 0.2394 -s 2 -d 3 -p cbr -e 210 -c 1 -i 17 -a 1 -x {1.0 5.0 17 ------- null}
h -t 0.2394 -s 2 -d 3 -p cbr -e 210 -c 1 -i 17 -a 1 -x {1.0 5.0 -1 ------- null}
+ -t 0.24032 -s 1 -d 2 -p cbr -e 210 -c 1 -i 24 -a 1 -x {1.0 5.0 24 ------- null}
- -t 0.24032 -s 1 -d 2 -p cbr -e 210 -c 1 -i 24 -a 1 -x {1.0 5.0 24 ------- null}
h -t 0.24032 -s 1 -d 2 -p cbr -e 210 -c 1 -i 24 -a 1 -x {1.0 5.0 -1 ------- null}
r -t 0.24092 -s 2 -d 3 -p cbr -e 210 -c 1 -i 5 -a 1 -x {1.0 5.0 5 ------- null}
+ -t 0.24092 -s 3 -d 5 -p cbr -e 210 -c 1 -i 5 -a 1 -x {1.0 5.0 5 ------- null}
- -t 0.24092 -s 3 -d 5 -p cbr -e 210 -c 1 -i 5 -a 1 -x {1.0 5.0 5 ------- null}
h -t 0.24092 -s 3 -d 5 -p cbr -e 210 -c 1 -i 5 -a 1 -x {1.0 5.0 -1 ------- null}
r -t 0.24108 -s 1 -d 2 -p cbr -e 210 -c 1 -i 18 -a 1 -x {1.0 5.0 18 ------- null}
+ -t 0.24108 -s 2 -d 3 -p cbr -e 210 -c 1 -i 18 -a 1 -x {1.0 5.0 18 ------- null}
- -t 0.24108 -s 2 -d 3 -p cbr -e 210 -c 1 -i 18 -a 1 -x {1.0 5.0 18 ------- null}
h -t 0.24108 -s 2 -d 3 -p cbr -e 210 -c 1 -i 18 -a 1 -x {1.0 5.0 -1 ------- null}
+ -t 0.242 -s 1 -d 2 -p cbr -e 210 -c 1 -i 25 -a 1 -x {1.0 5.0 25 ------- null}
- -t 0.242 -s 1 -d 2 -p cbr -e 210 -c 1 -i 25 -a 1 -x {1.0 5.0 25 ------- null}
h -t 0.242 -s 1 -d 2 -p cbr -e 210 -c 1 -i 25 -a 1 -x {1.0 5.0 -1 ------- null}
r -t 0.2426 -s 2 -d 3 -p cbr -e 210 -c 1 -i 6 -a 1 -x {1.0 5.0 6 ------- null}
+ -t 0.2426 -s 3 -d 5 -p cbr -e 210 -c 1 -i 6 -a 1 -x {1.0 5.0 6 ------- null}
- -t 0.2426 -s 3 -d 5 -p cbr -e 210 -c 1 -i 6 -a 1 -x {1.0 5.0 6 ------- null}
h -t 0.2426 -s 3 -d 5 -p cbr -e 210 -c 1 -i 6 -a 1 -x {1.0 5.0 -1 ------- null}
r -t 0.24276 -s 1 -d 2 -p cbr -e 210 -c 1 -i 19 -a 1 -x {1.0 5.0 19 ------- null}
+ -t 0.24276 -s 2 -d 3 -p cbr -e 210 -c 1 -i 19 -a 1 -x {1.0 5.0 19 ------- null}
- -t 0.24276 -s 2 -d 3 -p cbr -e 210 -c 1 -i 19 -a 1 -x {1.0 5.0 19 ------- null}
h -t 0.24276 -s 2 -d 3 -p cbr -e 210 -c 1 -i 19 -a 1 -x {1.0 5.0 -1 ------- null}
r -t 0.24336 -s 3 -d 5 -p cbr -e 210 -c 1 -i 0 -a 1 -x {1.0 5.0 0 ------- null}
+ -t 0.24368 -s 1 -d 2 -p cbr -e 210 -c 1 -i 26 -a 1 -x {1.0 5.0 26 ------- null}
- -t 0.24368 -s 1 -d 2 -p cbr -e 210 -c 1 -i 26 -a 1 -x {1.0 5.0 26 ------- null}
h -t 0.24368 -s 1 -d 2 -p cbr -e 210 -c 1 -i 26 -a 1 -x {1.0 5.0 -1 ------- null}
r -t 0.24428 -s 2 -d 3 -p cbr -e 210 -c 1 -i 7 -a 1 -x {1.0 5.0 7 ------- null}
+ -t 0.24428 -s 3 -d 5 -p cbr -e 210 -c 1 -i 7 -a 1 -x {1.0 5.0 7 ------- null}
- -t 0.24428 -s 3 -d 5 -p cbr -e 210 -c 1 -i 7 -a 1 -x {1.0 5.0 7 ------- null}
h -t 0.24428 -s 3 -d 5 -p cbr -e 210 -c 1 -i 7 -a 1 -x {1.0 5.0 -1 ------- null}
r -t 0.24444 -s 1 -d 2 -p cbr -e 210 -c 1 -i 20 -a 1 -x {1.0 5.0 20 ------- null}
+ -t 0.24444 -s 2 -d 3 -p cbr -e 210 -c 1 -i 20 -a 1 -x {1.0 5.0 20 ------- null}
- -t 0.24444 -s 2 -d 3 -p cbr -e 210 -c 1 -i 20 -a 1 -x {1.0 5.0 20 ------- null}
h -t 0.24444 -s 2 -d 3 -p cbr -e 210 -c 1 -i 20 -a 1 -x {1.0 5.0 -1 ------- null}
r -t 0.24504 -s 3 -d 5 -p cbr -e 210 -c 1 -i 1 -a 1 -x {1.0 5.0 1 ------- null}
+ -t 0.24536 -s 1 -d 2 -p cbr -e 210 -c 1 -i 27 -a 1 -x {1.0 5.0 27 ------- null}
- -t 0.24536 -s 1 -d 2 -p cbr -e 210 -c 1 -i 27 -a 1 -x {1.0 5.0 27 ------- null}
h -t 0.24536 -s 1 -d 2 -p cbr -e 210 -c 1 -i 27 -a 1 -x {1.0 5.0 -1 ------- null}
r -t 0.24596 -s 2 -d 3 -p cbr -e 210 -c 1 -i 8 -a 1 -x {1.0 5.0 8 ------- null}
+ -t 0.24596 -s 3 -d 5 -p cbr -e 210 -c 1 -i 8 -a 1 -x {1.0 5.0 8 ------- null}
- -t 0.24596 -s 3 -d 5 -p cbr -e 210 -c 1 -i 8 -a 1 -x {1.0 5.0 8 ------- null}
h -t 0.24596 -s 3 -d 5 -p cbr -e 210 -c 1 -i 8 -a 1 -x {1.0 5.0 -1 ------- null}
r -t 0.24612 -s 1 -d 2 -p cbr -e 210 -c 1 -i 21 -a 1 -x {1.0 5.0 21 ------- null}
+ -t 0.24612 -s 2 -d 3 -p cbr -e 210 -c 1 -i 21 -a 1 -x {1.0 5.0 21 ------- null}
- -t 0.24612 -s 2 -d 3 -p cbr -e 210 -c 1 -i 21 -a 1 -x {1.0 5.0 21 ------- null}
h -t 0.24612 -s 2 -d 3 -p cbr -e 210 -c 1 -i 21 -a 1 -x {1.0 5.0 -1 ------- null}
r -t 0.24672 -s 3 -d 5 -p cbr -e 210 -c 1 -i 2 -a 1 -x {1.0 5.0 2 ------- null}
+ -t 0.24704 -s 1 -d 2 -p cbr -e 210 -c 1 -i 28 -a 1 -x {1.0 5.0 28 ------- null}
- -t 0.24704 -s 1 -d 2 -p cbr -e 210 -c 1 -i 28 -a 1 -x {1.0 5.0 28 ------- null}
h -t 0.24704 -s 1 -d 2 -p cbr -e 210 -c 1 -i 28 -a 1 -x {1.0 5.0 -1 ------- null}
r -t 0.24764 -s 2 -d 3 -p cbr -e 210 -c 1 -i 9 -a 1 -x {1.0 5.0 9 ------- null}
+ -t 0.24764 -s 3 -d 5 -p cbr -e 210 -c 1 -i 9 -a 1 -x {1.0 5.0 9 ------- null}
- -t 0.24764 -s 3 -d 5 -p cbr -e 210 -c 1 -i 9 -a 1 -x {1.0 5.0 9 ------- null}
h -t 0.24764 -s 3 -d 5 -p cbr -e 210 -c 1 -i 9 -a 1 -x {1.0 5.0 -1 ------- null}
r -t 0.2478 -s 1 -d 2 -p cbr -e 210 -c 1 -i 22 -a 1 -x {1.0 5.0 22 ------- null}
+ -t 0.2478 -s 2 -d 3 -p cbr -e 210 -c 1 -i 22 -a 1 -x {1.0 5.0 22 ------- null}
- -t 0.2478 -s 2 -d 3 -p cbr -e 210 -c 1 -i 22 -a 1 -x {1.0 5.0 22 ------- null}
h -t 0.2478 -s 2 -d 3 -p cbr -e 210 -c 1 -i 22 -a 1 -x {1.0 5.0 -1 ------- null}
r -t 0.2484 -s 3 -d 5 -p cbr -e 210 -c 1 -i 3 -a 1 -x {1.0 5.0 3 ------- null}
+ -t 0.24872 -s 1 -d 2 -p cbr -e 210 -c 1 -i 29 -a 1 -x {1.0 5.0 29 ------- null}
- -t 0.24872 -s 1 -d 2 -p cbr -e 210 -c 1 -i 29 -a 1 -x {1.0 5.0 29 ------- null}
h -t 0.24872 -s 1 -d 2 -p cbr -e 210 -c 1 -i 29 -a 1 -x {1.0 5.0 -1 ------- null}
r -t 0.24932 -s 2 -d 3 -p cbr -e 210 -c 1 -i 10 -a 1 -x {1.0 5.0 10 ------- null}
+ -t 0.24932 -s 3 -d 5 -p cbr -e 210 -c 1 -i 10 -a 1 -x {1.0 5.0 10 ------- null}
- -t 0.24932 -s 3 -d 5 -p cbr -e 210 -c 1 -i 10 -a 1 -x {1.0 5.0 10 ------- null}
h -t 0.24932 -s 3 -d 5 -p cbr -e 210 -c 1 -i 10 -a 1 -x {1.0 5.0 -1 ------- null}
r -t 0.24948 -s 1 -d 2 -p cbr -e 210 -c 1 -i 23 -a 1 -x {1.0 5.0 23 ------- null}
+ -t 0.24948 -s 2 -d 3 -p cbr -e 210 -c 1 -i 23 -a 1 -x {1.0 5.0 23 ------- null}
- -t 0.24948 -s 2 -d 3 -p cbr -e 210 -c 1 -i 23 -a 1 -x {1.0 5.0 23 ------- null}
h -t 0.24948 -s 2 -d 3 -p cbr -e 210 -c 1 -i 23 -a 1 -x {1.0 5.0 -1 ------- null}
r -t 0.25008 -s 3 -d 5 -p cbr -e 210 -c 1 -i 4 -a 1 -x {1.0 5.0 4 ------- null}
+ -t 0.2504 -s 1 -d 2 -p cbr -e 210 -c 1 -i 30 -a 1 -x {1.0 5.0 30 ------- null}
- -t 0.2504 -s 1 -d 2 -p cbr -e 210 -c 1 -i 30 -a 1 -x {1.0 5.0 30 ------- null}
h -t 0.2504 -s 1 -d 2 -p cbr -e 210 -c 1 -i 30 -a 1 -x {1.0 5.0 -1 ------- null}
r -t 0.251 -s 2 -d 3 -p cbr -e 210 -c 1 -i 11 -a 1 -x {1.0 5.0 11 ------- null}
+ -t 0.251 -s 3 -d 5 -p cbr -e 210 -c 1 -i 11 -a 1 -x {1.0 5.0 11 ------- null}
- -t 0.251 -s 3 -d 5 -p cbr -e 210 -c 1 -i 11 -a 1 -x {1.0 5.0 11 ------- null}
h -t 0.251 -s 3 -d 5 -p cbr -e 210 -c 1 -i 11 -a 1 -x {1.0 5.0 -1 ------- null}
r -t 0.25116 -s 1 -d 2 -p cbr -e 210 -c 1 -i 24 -a 1 -x {1.0 5.0 24 ------- null}
+ -t 0.25116 -s 2 -d 3 -p cbr -e 210 -c 1 -i 24 -a 1 -x {1.0 5.0 24 ------- null}
- -t 0.25116 -s 2 -d 3 -p cbr -e 210 -c 1 -i 24 -a 1 -x {1.0 5.0 24 ------- null}
h -t 0.25116 -s 2 -d 3 -p cbr -e 210 -c 1 -i 24 -a 1 -x {1.0 5.0 -1 ------- null}
r -t 0.25176 -s 3 -d 5 -p cbr -e 210 -c 1 -i 5 -a 1 -x {1.0 5.0 5 ------- null}
+ -t 0.25208 -s 1 -d 2 -p cbr -e 210 -c 1 -i 31 -a 1 -x {1.0 5.0 31 ------- null}
- -t 0.25208 -s 1 -d 2 -p cbr -e 210 -c 1 -i 31 -a 1 -x {1.0 5.0 31 ------- null}
h -t 0.25208 -s 1 -d 2 -p cbr -e 210 -c 1 -i 31 -a 1 -x {1.0 5.0 -1 ------- null}
r -t 0.25268 -s 2 -d 3 -p cbr -e 210 -c 1 -i 12 -a 1 -x {1.0 5.0 12 ------- null}
+ -t 0.25268 -s 3 -d 5 -p cbr -e 210 -c 1 -i 12 -a 1 -x {1.0 5.0 12 ------- null}
- -t 0.25268 -s 3 -d 5 -p cbr -e 210 -c 1 -i 12 -a 1 -x {1.0 5.0 12 ------- null}
h -t 0.25268 -s 3 -d 5 -p cbr -e 210 -c 1 -i 12 -a 1 -x {1.0 5.0 -1 ------- null}
r -t 0.25284 -s 1 -d 2 -p cbr -e 210 -c 1 -i 25 -a 1 -x {1.0 5.0 25 ------- null}
+ -t 0.25284 -s 2 -d 3 -p cbr -e 210 -c 1 -i 25 -a 1 -x {1.0 5.0 25 ------- null}
- -t 0.25284 -s 2 -d 3 -p cbr -e 210 -c 1 -i 25 -a 1 -x {1.0 5.0 25 ------- null}
h -t 0.25284 -s 2 -d 3 -p cbr -e 210 -c 1 -i 25 -a 1 -x {1.0 5.0 -1 ------- null}
r -t 0.25344 -s 3 -d 5 -p cbr -e 210 -c 1 -i 6 -a 1 -x {1.0 5.0 6 ------- null}
+ -t 0.25376 -s 1 -d 2 -p cbr -e 210 -c 1 -i 32 -a 1 -x {1.0 5.0 32 ------- null}
- -t 0.25376 -s 1 -d 2 -p cbr -e 210 -c 1 -i 32 -a 1 -x {1.0 5.0 32 ------- null}
h -t 0.25376 -s 1 -d 2 -p cbr -e 210 -c 1 -i 32 -a 1 -x {1.0 5.0 -1 ------- null}
r -t 0.25436 -s 2 -d 3 -p cbr -e 210 -c 1 -i 13 -a 1 -x {1.0 5.0 13 ------- null}
+ -t 0.25436 -s 3 -d 5 -p cbr -e 210 -c 1 -i 13 -a 1 -x {1.0 5.0 13 ------- null}
- -t 0.25436 -s 3 -d 5 -p cbr -e 210 -c 1 -i 13 -a 1 -x {1.0 5.0 13 ------- null}
h -t 0.25436 -s 3 -d 5 -p cbr -e 210 -c 1 -i 13 -a 1 -x {1.0 5.0 -1 ------- null}
r -t 0.25452 -s 1 -d 2 -p cbr -e 210 -c 1 -i 26 -a 1 -x {1.0 5.0 26 ------- null}
+ -t 0.25452 -s 2 -d 3 -p cbr -e 210 -c 1 -i 26 -a 1 -x {1.0 5.0 26 ------- null}
- -t 0.25452 -s 2 -d 3 -p cbr -e 210 -c 1 -i 26 -a 1 -x {1.0 5.0 26 ------- null}
h -t 0.25452 -s 2 -d 3 -p cbr -e 210 -c 1 -i 26 -a 1 -x {1.0 5.0 -1 ------- null}
r -t 0.25512 -s 3 -d 5 -p cbr -e 210 -c 1 -i 7 -a 1 -x {1.0 5.0 7 ------- null}
+ -t 0.25544 -s 1 -d 2 -p cbr -e 210 -c 1 -i 33 -a 1 -x {1.0 5.0 33 ------- null}
- -t 0.25544 -s 1 -d 2 -p cbr -e 210 -c 1 -i 33 -a 1 -x {1.0 5.0 33 ------- null}
h -t 0.25544 -s 1 -d 2 -p cbr -e 210 -c 1 -i 33 -a 1 -x {1.0 5.0 -1 ------- null}
r -t 0.25604 -s 2 -d 3 -p cbr -e 210 -c 1 -i 14 -a 1 -x {1.0 5.0 14 ------- null}
+ -t 0.25604 -s 3 -d 5 -p cbr -e 210 -c 1 -i 14 -a 1 -x {1.0 5.0 14 ------- null}
- -t 0.25604 -s 3 -d 5 -p cbr -e 210 -c 1 -i 14 -a 1 -x {1.0 5.0 14 ------- null}
h -t 0.25604 -s 3 -d 5 -p cbr -e 210 -c 1 -i 14 -a 1 -x {1.0 5.0 -1 ------- null}
r -t 0.2562 -s 1 -d 2 -p cbr -e 210 -c 1 -i 27 -a 1 -x {1.0 5.0 27 ------- null}
+ -t 0.2562 -s 2 -d 3 -p cbr -e 210 -c 1 -i 27 -a 1 -x {1.0 5.0 27 ------- null}
- -t 0.2562 -s 2 -d 3 -p cbr -e 210 -c 1 -i 27 -a 1 -x {1.0 5.0 27 ------- null}
h -t 0.2562 -s 2 -d 3 -p cbr -e 210 -c 1 -i 27 -a 1 -x {1.0 5.0 -1 ------- null}
r -t 0.2568 -s 3 -d 5 -p cbr -e 210 -c 1 -i 8 -a 1 -x {1.0 5.0 8 ------- null}
+ -t 0.25712 -s 1 -d 2 -p cbr -e 210 -c 1 -i 34 -a 1 -x {1.0 5.0 34 ------- null}
- -t 0.25712 -s 1 -d 2 -p cbr -e 210 -c 1 -i 34 -a 1 -x {1.0 5.0 34 ------- null}
h -t 0.25712 -s 1 -d 2 -p cbr -e 210 -c 1 -i 34 -a 1 -x {1.0 5.0 -1 ------- null}
r -t 0.25772 -s 2 -d 3 -p cbr -e 210 -c 1 -i 15 -a 1 -x {1.0 5.0 15 ------- null}
+ -t 0.25772 -s 3 -d 5 -p cbr -e 210 -c 1 -i 15 -a 1 -x {1.0 5.0 15 ------- null}
- -t 0.25772 -s 3 -d 5 -p cbr -e 210 -c 1 -i 15 -a 1 -x {1.0 5.0 15 ------- null}
h -t 0.25772 -s 3 -d 5 -p cbr -e 210 -c 1 -i 15 -a 1 -x {1.0 5.0 -1 ------- null}
r -t 0.25788 -s 1 -d 2 -p cbr -e 210 -c 1 -i 28 -a 1 -x {1.0 5.0 28 ------- null}
+ -t 0.25788 -s 2 -d 3 -p cbr -e 210 -c 1 -i 28 -a 1 -x {1.0 5.0 28 ------- null}
- -t 0.25788 -s 2 -d 3 -p cbr -e 210 -c 1 -i 28 -a 1 -x {1.0 5.0 28 ------- null}
h -t 0.25788 -s 2 -d 3 -p cbr -e 210 -c 1 -i 28 -a 1 -x {1.0 5.0 -1 ------- null}
r -t 0.25848 -s 3 -d 5 -p cbr -e 210 -c 1 -i 9 -a 1 -x {1.0 5.0 9 ------- null}
+ -t 0.2588 -s 1 -d 2 -p cbr -e 210 -c 1 -i 35 -a 1 -x {1.0 5.0 35 ------- null}
- -t 0.2588 -s 1 -d 2 -p cbr -e 210 -c 1 -i 35 -a 1 -x {1.0 5.0 35 ------- null}
h -t 0.2588 -s 1 -d 2 -p cbr -e 210 -c 1 -i 35 -a 1 -x {1.0 5.0 -1 ------- null}
r -t 0.2594 -s 2 -d 3 -p cbr -e 210 -c 1 -i 16 -a 1 -x {1.0 5.0 16 ------- null}
+ -t 0.2594 -s 3 -d 5 -p cbr -e 210 -c 1 -i 16 -a 1 -x {1.0 5.0 16 ------- null}
- -t 0.2594 -s 3 -d 5 -p cbr -e 210 -c 1 -i 16 -a 1 -x {1.0 5.0 16 ------- null}
h -t 0.2594 -s 3 -d 5 -p cbr -e 210 -c 1 -i 16 -a 1 -x {1.0 5.0 -1 ------- null}
r -t 0.25956 -s 1 -d 2 -p cbr -e 210 -c 1 -i 29 -a 1 -x {1.0 5.0 29 ------- null}
+ -t 0.25956 -s 2 -d 3 -p cbr -e 210 -c 1 -i 29 -a 1 -x {1.0 5.0 29 ------- null}
- -t 0.25956 -s 2 -d 3 -p cbr -e 210 -c 1 -i 29 -a 1 -x {1.0 5.0 29 ------- null}
h -t 0.25956 -s 2 -d 3 -p cbr -e 210 -c 1 -i 29 -a 1 -x {1.0 5.0 -1 ------- null}
r -t 0.26016 -s 3 -d 5 -p cbr -e 210 -c 1 -i 10 -a 1 -x {1.0 5.0 10 ------- null}
+ -t 0.26048 -s 1 -d 2 -p cbr -e 210 -c 1 -i 36 -a 1 -x {1.0 5.0 36 ------- null}
- -t 0.26048 -s 1 -d 2 -p cbr -e 210 -c 1 -i 36 -a 1 -x {1.0 5.0 36 ------- null}
h -t 0.26048 -s 1 -d 2 -p cbr -e 210 -c 1 -i 36 -a 1 -x {1.0 5.0 -1 ------- null}
r -t 0.26108 -s 2 -d 3 -p cbr -e 210 -c 1 -i 17 -a 1 -x {1.0 5.0 17 ------- null}
+ -t 0.26108 -s 3 -d 5 -p cbr -e 210 -c 1 -i 17 -a 1 -x {1.0 5.0 17 ------- null}
- -t 0.26108 -s 3 -d 5 -p cbr -e 210 -c 1 -i 17 -a 1 -x {1.0 5.0 17 ------- null}
h -t 0.26108 -s 3 -d 5 -p cbr -e 210 -c 1 -i 17 -a 1 -x {1.0 5.0 -1 ------- null}
r -t 0.26124 -s 1 -d 2 -p cbr -e 210 -c 1 -i 30 -a 1 -x {1.0 5.0 30 ------- null}
+ -t 0.26124 -s 2 -d 3 -p cbr -e 210 -c 1 -i 30 -a 1 -x {1.0 5.0 30 ------- null}
- -t 0.26124 -s 2 -d 3 -p cbr -e 210 -c 1 -i 30 -a 1 -x {1.0 5.0 30 ------- null}
h -t 0.26124 -s 2 -d 3 -p cbr -e 210 -c 1 -i 30 -a 1 -x {1.0 5.0 -1 ------- null}
r -t 0.26184 -s 3 -d 5 -p cbr -e 210 -c 1 -i 11 -a 1 -x {1.0 5.0 11 ------- null}
+ -t 0.26216 -s 1 -d 2 -p cbr -e 210 -c 1 -i 37 -a 1 -x {1.0 5.0 37 ------- null}
- -t 0.26216 -s 1 -d 2 -p cbr -e 210 -c 1 -i 37 -a 1 -x {1.0 5.0 37 ------- null}
h -t 0.26216 -s 1 -d 2 -p cbr -e 210 -c 1 -i 37 -a 1 -x {1.0 5.0 -1 ------- null}
r -t 0.26276 -s 2 -d 3 -p cbr -e 210 -c 1 -i 18 -a 1 -x {1.0 5.0 18 ------- null}
+ -t 0.26276 -s 3 -d 5 -p cbr -e 210 -c 1 -i 18 -a 1 -x {1.0 5.0 18 ------- null}
- -t 0.26276 -s 3 -d 5 -p cbr -e 210 -c 1 -i 18 -a 1 -x {1.0 5.0 18 ------- null}
h -t 0.26276 -s 3 -d 5 -p cbr -e 210 -c 1 -i 18 -a 1 -x {1.0 5.0 -1 ------- null}
r -t 0.26292 -s 1 -d 2 -p cbr -e 210 -c 1 -i 31 -a 1 -x {1.0 5.0 31 ------- null}
+ -t 0.26292 -s 2 -d 3 -p cbr -e 210 -c 1 -i 31 -a 1 -x {1.0 5.0 31 ------- null}
- -t 0.26292 -s 2 -d 3 -p cbr -e 210 -c 1 -i 31 -a 1 -x {1.0 5.0 31 ------- null}
h -t 0.26292 -s 2 -d 3 -p cbr -e 210 -c 1 -i 31 -a 1 -x {1.0 5.0 -1 ------- null}
r -t 0.26352 -s 3 -d 5 -p cbr -e 210 -c 1 -i 12 -a 1 -x {1.0 5.0 12 ------- null}
+ -t 0.26384 -s 1 -d 2 -p cbr -e 210 -c 1 -i 38 -a 1 -x {1.0 5.0 38 ------- null}
- -t 0.26384 -s 1 -d 2 -p cbr -e 210 -c 1 -i 38 -a 1 -x {1.0 5.0 38 ------- null}
h -t 0.26384 -s 1 -d 2 -p cbr -e 210 -c 1 -i 38 -a 1 -x {1.0 5.0 -1 ------- null}
r -t 0.26444 -s 2 -d 3 -p cbr -e 210 -c 1 -i 19 -a 1 -x {1.0 5.0 19 ------- null}
+ -t 0.26444 -s 3 -d 5 -p cbr -e 210 -c 1 -i 19 -a 1 -x {1.0 5.0 19 ------- null}
- -t 0.26444 -s 3 -d 5 -p cbr -e 210 -c 1 -i 19 -a 1 -x {1.0 5.0 19 ------- null}
h -t 0.26444 -s 3 -d 5 -p cbr -e 210 -c 1 -i 19 -a 1 -x {1.0 5.0 -1 ------- null}
r -t 0.2646 -s 1 -d 2 -p cbr -e 210 -c 1 -i 32 -a 1 -x {1.0 5.0 32 ------- null}
+ -t 0.2646 -s 2 -d 3 -p cbr -e 210 -c 1 -i 32 -a 1 -x {1.0 5.0 32 ------- null}
- -t 0.2646 -s 2 -d 3 -p cbr -e 210 -c 1 -i 32 -a 1 -x {1.0 5.0 32 ------- null}
h -t 0.2646 -s 2 -d 3 -p cbr -e 210 -c 1 -i 32 -a 1 -x {1.0 5.0 -1 ------- null}
r -t 0.2652 -s 3 -d 5 -p cbr -e 210 -c 1 -i 13 -a 1 -x {1.0 5.0 13 ------- null}
+ -t 0.26552 -s 1 -d 2 -p cbr -e 210 -c 1 -i 39 -a 1 -x {1.0 5.0 39 ------- null}
- -t 0.26552 -s 1 -d 2 -p cbr -e 210 -c 1 -i 39 -a 1 -x {1.0 5.0 39 ------- null}
h -t 0.26552 -s 1 -d 2 -p cbr -e 210 -c 1 -i 39 -a 1 -x {1.0 5.0 -1 ------- null}
r -t 0.26612 -s 2 -d 3 -p cbr -e 210 -c 1 -i 20 -a 1 -x {1.0 5.0 20 ------- null}
+ -t 0.26612 -s 3 -d 5 -p cbr -e 210 -c 1 -i 20 -a 1 -x {1.0 5.0 20 ------- null}
- -t 0.26612 -s 3 -d 5 -p cbr -e 210 -c 1 -i 20 -a 1 -x {1.0 5.0 20 ------- null}
h -t 0.26612 -s 3 -d 5 -p cbr -e 210 -c 1 -i 20 -a 1 -x {1.0 5.0 -1 ------- null}
r -t 0.26628 -s 1 -d 2 -p cbr -e 210 -c 1 -i 33 -a 1 -x {1.0 5.0 33 ------- null}
+ -t 0.26628 -s 2 -d 3 -p cbr -e 210 -c 1 -i 33 -a 1 -x {1.0 5.0 33 ------- null}
- -t 0.26628 -s 2 -d 3 -p cbr -e 210 -c 1 -i 33 -a 1 -x {1.0 5.0 33 ------- null}
h -t 0.26628 -s 2 -d 3 -p cbr -e 210 -c 1 -i 33 -a 1 -x {1.0 5.0 -1 ------- null}
r -t 0.26688 -s 3 -d 5 -p cbr -e 210 -c 1 -i 14 -a 1 -x {1.0 5.0 14 ------- null}
+ -t 0.2672 -s 1 -d 2 -p cbr -e 210 -c 1 -i 40 -a 1 -x {1.0 5.0 40 ------- null}
- -t 0.2672 -s 1 -d 2 -p cbr -e 210 -c 1 -i 40 -a 1 -x {1.0 5.0 40 ------- null}
h -t 0.2672 -s 1 -d 2 -p cbr -e 210 -c 1 -i 40 -a 1 -x {1.0 5.0 -1 ------- null}
r -t 0.2678 -s 2 -d 3 -p cbr -e 210 -c 1 -i 21 -a 1 -x {1.0 5.0 21 ------- null}