+ 0.2 1 2 cbr 210 ------- 1 1.0 5.0 0 0
- 0.2 1 2 cbr 210 ------- 1 1.0 5.0 0 0
+ 0.20168 1 2 cbr 210 ------- 1 1.0 5.0 1 1
- 0.20168 1 2 cbr 210 ------- 1 1.0 5.0 1 1
+ 0.20336 1 2 cbr 210 ------- 1 1.0 5.0 2 2
- 0.20336 1 2 cbr 210 ------- 1 1.0 5.0 2 2
+ 0.20504 1 2 cbr 210 ------- 1 1.0 5.0 3 3
- 0.20504 1 2 cbr 210 ------- 1 1.0 5.0 3 3
+ 0.20672 1 2 cbr 210 ------- 1 1.0 5.0 4 4
- 0.20672 1 2 cbr 210 ------- 1 1.0 5.0 4 4
+ 0.2084 1 2 cbr 210 ------- 1 1.0 5.0 5 5
- 0.2084 1 2 cbr 210 ------- 1 1.0 5.0 5 5
+ 0.21008 1 2 cbr 210 ------- 1 1.0 5.0 6 6
- 0.21008 1 2 cbr 210 ------- 1 1.0 5.0 6 6
r 0.21084 1 2 cbr 210 ------- 1 1.0 5.0 0 0
+ 0.21084 2 3 cbr 210 ------- 1 1.0 5.0 0 0
- 0.21084 2 3 cbr 210 ------- 1 1.0 5.0 0 0
+ 0.21176 1 2 cbr 210 ------- 1 1.0 5.0 7 7
- 0.21176 1 2 cbr 210 ------- 1 1.0 5.0 7 7
r 0.21252 1 2 cbr 210 ------- 1 1.0 5.0 1 1
+ 0.21252 2 3 cbr 210 ------- 1 1.0 5.0 1 1
- 0.21252 2 3 cbr 210 ------- 1 1.0 5.0 1 1
+ 0.21344 1 2 cbr 210 ------- 1 1.0 5.0 8 8
- 0.21344 1 2 cbr 210 ------- 1 1.0 5.0 8 8
r 0.2142 1 2 cbr 210 ------- 1 1.0 5.0 2 2
+ 0.2142 2 3 cbr 210 ------- 1 1.0 5.0 2 2
- 0.2142 2 3 cbr 210 ------- 1 1.0 5.0 2 2
+ 0.21512 1 2 cbr 210 ------- 1 1.0 5.0 9 9
- 0.21512 1 2 cbr 210 ------- 1 1.0 5.0 9 9
r 0.21588 1 2 cbr 210 ------- 1 1.0 5.0 3 3
+ 0.21588 2 3 cbr 210 ------- 1 1.0 5.0 3 3
- 0.21588 2 3 cbr 210 ------- 1 1.0 5.0 3 3
+ 0.2168 1 2 cbr 210 ------- 1 1.0 5.0 10 10
- 0.2168 1 2 cbr 210 ------- 1 1.0 5.0 10 10
r 0.21756 1 2 cbr 210 ------- 1 1.0 5.0 4 4
+ 0.21756 2 3 cbr 210 ------- 1 1.0 5.0 4 4
- 0.21756 2 3 cbr 210 ------- 1 1.0 5.0 4 4
+ 0.21848 1 2 cbr 210 ------- 1 1.0 5.0 11 11
- 0.21848 1 2 cbr 210 ------- 1 1.0 5.0 11 11
r 0.21924 1 2 cbr 210 ------- 1 1.0 5.0 5 5
+ 0.21924 2 3 cbr 210 ------- 1 1.0 5.0 5 5
- 0.21924 2 3 cbr 210 ------- 1 1.0 5.0 5 5
+ 0.22016 1 2 cbr 210 ------- 1 1.0 5.0 12 12
- 0.22016 1 2 cbr 210 ------- 1 1.0 5.0 12 12
r 0.22092 1 2 cbr 210 ------- 1 1.0 5.0 6 6
+ 0.22092 2 3 cbr 210 ------- 1 1.0 5.0 6 6
- 0.22092 2 3 cbr 210 ------- 1 1.0 5.0 6 6
+ 0.22184 1 2 cbr 210 ------- 1 1.0 5.0 13 13
- 0.22184 1 2 cbr 210 ------- 1 1.0 5.0 13 13
r 0.2226 1 2 cbr 210 ------- 1 1.0 5.0 7 7
+ 0.2226 2 3 cbr 210 ------- 1 1.0 5.0 7 7
- 0.2226 2 3 cbr 210 ------- 1 1.0 5.0 7 7
+ 0.22352 1 2 cbr 210 ------- 1 1.0 5.0 14 14
- 0.22352 1 2 cbr 210 ------- 1 1.0 5.0 14 14
r 0.22428 1 2 cbr 210 ------- 1 1.0 5.0 8 8
+ 0.22428 2 3 cbr 210 ------- 1 1.0 5.0 8 8
- 0.22428 2 3 cbr 210 ------- 1 1.0 5.0 8 8
+ 0.2252 1 2 cbr 210 ------- 1 1.0 5.0 15 15
- 0.2252 1 2 cbr 210 ------- 1 1.0 5.0 15 15
r 0.22596 1 2 cbr 210 ------- 1 1.0 5.0 9 9
+ 0.22596 2 3 cbr 210 ------- 1 1.0 5.0 9 9
- 0.22596 2 3 cbr 210 ------- 1 1.0 5.0 9 9
+ 0.22688 1 2 cbr 210 ------- 1 1.0 5.0 16 16
- 0.22688 1 2 cbr 210 ------- 1 1.0 5.0 16 16
r 0.22764 1 2 cbr 210 ------- 1 1.0 5.0 10 10
+ 0.22764 2 3 cbr 210 ------- 1 1.0 5.0 10 10
- 0.22764 2 3 cbr 210 ------- 1 1.0 5.0 10 10
+ 0.22856 1 2 cbr 210 ------- 1 1.0 5.0 17 17
- 0.22856 1 2 cbr 210 ------- 1 1.0 5.0 17 17
r 0.22932 1 2 cbr 210 ------- 1 1.0 5.0 11 11
+ 0.22932 2 3 cbr 210 ------- 1 1.0 5.0 11 11
- 0.22932 2 3 cbr 210 ------- 1 1.0 5.0 11 11
+ 0.23024 1 2 cbr 210 ------- 1 1.0 5.0 18 18
- 0.23024 1 2 cbr 210 ------- 1 1.0 5.0 18 18
r 0.231 1 2 cbr 210 ------- 1 1.0 5.0 12 12
+ 0.231 2 3 cbr 210 ------- 1 1.0 5.0 12 12
- 0.231 2 3 cbr 210 ------- 1 1.0 5.0 12 12
+ 0.23192 1 2 cbr 210 ------- 1 1.0 5.0 19 19
- 0.23192 1 2 cbr 210 ------- 1 1.0 5.0 19 19
r 0.23252 2 3 cbr 210 ------- 1 1.0 5.0 0 0
+ 0.23252 3 5 cbr 210 ------- 1 1.0 5.0 0 0
- 0.23252 3 5 cbr 210 ------- 1 1.0 5.0 0 0
r 0.23268 1 2 cbr 210 ------- 1 1.0 5.0 13 13
+ 0.23268 2 3 cbr 210 ------- 1 1.0 5.0 13 13
- 0.23268 2 3 cbr 210 ------- 1 1.0 5.0 13 13
+ 0.2336 1 2 cbr 210 ------- 1 1.0 5.0 20 20
- 0.2336 1 2 cbr 210 ------- 1 1.0 5.0 20 20
r 0.2342 2 3 cbr 210 ------- 1 1.0 5.0 1 1
+ 0.2342 3 5 cbr 210 ------- 1 1.0 5.0 1 1
- 0.2342 3 5 cbr 210 ------- 1 1.0 5.0 1 1
r 0.23436 1 2 cbr 210 ------- 1 1.0 5.0 14 14
+ 0.23436 2 3 cbr 210 ------- 1 1.0 5.0 14 14
- 0.23436 2 3 cbr 210 ------- 1 1.0 5.0 14 14
+ 0.23528 1 2 cbr 210 ------- 1 1.0 5.0 21 21
- 0.23528 1 2 cbr 210 ------- 1 1.0 5.0 21 21
r 0.23588 2 3 cbr 210 ------- 1 1.0 5.0 2 2
+ 0.23588 3 5 cbr 210 ------- 1 1.0 5.0 2 2
- 0.23588 3 5 cbr 210 ------- 1 1.0 5.0 2 2
r 0.23604 1 2 cbr 210 ------- 1 1.0 5.0 15 15
+ 0.23604 2 3 cbr 210 ------- 1 1.0 5.0 15 15
- 0.23604 2 3 cbr 210 ------- 1 1.0 5.0 15 15
+ 0.23696 1 2 cbr 210 ------- 1 1.0 5.0 22 22
- 0.23696 1 2 cbr 210 ------- 1 1.0 5.0 22 22
r 0.23756 2 3 cbr 210 ------- 1 1.0 5.0 3 3
+ 0.23756 3 5 cbr 210 ------- 1 1.0 5.0 3 3
- 0.23756 3 5 cbr 210 ------- 1 1.0 5.0 3 3
r 0.23772 1 2 cbr 210 ------- 1 1.0 5.0 16 16
+ 0.23772 2 3 cbr 210 ------- 1 1.0 5.0 16 16
- 0.23772 2 3 cbr 210 ------- 1 1.0 5.0 16 16
+ 0.23864 1 2 cbr 210 ------- 1 1.0 5.0 23 23
- 0.23864 1 2 cbr 210 ------- 1 1.0 5.0 23 23
r 0.23924 2 3 cbr 210 ------- 1 1.0 5.0 4 4
+ 0.23924 3 5 cbr 210 ------- 1 1.0 5.0 4 4
- 0.23924 3 5 cbr 210 ------- 1 1.0 5.0 4 4
r 0.2394 1 2 cbr 210 ------- 1 1.0 5.0 17 17
+ 0.2394 2 3 cbr 210 ------- 1 1.0 5.0 17 17
- 0.2394 2 3 cbr 210 ------- 1 1.0 5.0 17 17
+ 0.24032 1 2 cbr 210 ------- 1 1.0 5.0 24 24
- 0.24032 1 2 cbr 210 ------- 1 1.0 5.0 24 24
r 0.24092 2 3 cbr 210 ------- 1 1.0 5.0 5 5
+ 0.24092 3 5 cbr 210 ------- 1 1.0 5.0 5 5
- 0.24092 3 5 cbr 210 ------- 1 1.0 5.0 5 5
r 0.24108 1 2 cbr 210 ------- 1 1.0 5.0 18 18
+ 0.24108 2 3 cbr 210 ------- 1 1.0 5.0 18 18
- 0.24108 2 3 cbr 210 ------- 1 1.0 5.0 18 18
+ 0.242 1 2 cbr 210 ------- 1 1.0 5.0 25 25
- 0.242 1 2 cbr 210 ------- 1 1.0 5.0 25 25
r 0.2426 2 3 cbr 210 ------- 1 1.0 5.0 6 6
+ 0.2426 3 5 cbr 210 ------- 1 1.0 5.0 6 6
- 0.2426 3 5 cbr 210 ------- 1 1.0 5.0 6 6
r 0.24276 1 2 cbr 210 ------- 1 1.0 5.0 19 19
+ 0.24276 2 3 cbr 210 ------- 1 1.0 5.0 19 19
- 0.24276 2 3 cbr 210 ------- 1 1.0 5.0 19 19
r 0.24336 3 5 cbr 210 ------- 1 1.0 5.0 0 0
+ 0.24368 1 2 cbr 210 ------- 1 1.0 5.0 26 26
- 0.24368 1 2 cbr 210 ------- 1 1.0 5.0 26 26
r 0.24428 2 3 cbr 210 ------- 1 1.0 5.0 7 7
+ 0.24428 3 5 cbr 210 ------- 1 1.0 5.0 7 7
- 0.24428 3 5 cbr 210 ------- 1 1.0 5.0 7 7
r 0.24444 1 2 cbr 210 ------- 1 1.0 5.0 20 20
+ 0.24444 2 3 cbr 210 ------- 1 1.0 5.0 20 20
- 0.24444 2 3 cbr 210 ------- 1 1.0 5.0 20 20
r 0.24504 3 5 cbr 210 ------- 1 1.0 5.0 1 1
+ 0.24536 1 2 cbr 210 ------- 1 1.0 5.0 27 27
- 0.24536 1 2 cbr 210 ------- 1 1.0 5.0 27 27
r 0.24596 2 3 cbr 210 ------- 1 1.0 5.0 8 8
+ 0.24596 3 5 cbr 210 ------- 1 1.0 5.0 8 8
- 0.24596 3 5 cbr 210 ------- 1 1.0 5.0 8 8
r 0.24612 1 2 cbr 210 ------- 1 1.0 5.0 21 21
+ 0.24612 2 3 cbr 210 ------- 1 1.0 5.0 21 21
- 0.24612 2 3 cbr 210 ------- 1 1.0 5.0 21 21
r 0.24672 3 5 cbr 210 ------- 1 1.0 5.0 2 2
+ 0.24704 1 2 cbr 210 ------- 1 1.0 5.0 28 28
- 0.24704 1 2 cbr 210 ------- 1 1.0 5.0 28 28
r 0.24764 2 3 cbr 210 ------- 1 1.0 5.0 9 9
+ 0.24764 3 5 cbr 210 ------- 1 1.0 5.0 9 9
- 0.24764 3 5 cbr 210 ------- 1 1.0 5.0 9 9
r 0.2478 1 2 cbr 210 ------- 1 1.0 5.0 22 22
+ 0.2478 2 3 cbr 210 ------- 1 1.0 5.0 22 22
- 0.2478 2 3 cbr 210 ------- 1 1.0 5.0 22 22
r 0.2484 3 5 cbr 210 ------- 1 1.0 5.0 3 3
+ 0.24872 1 2 cbr 210 ------- 1 1.0 5.0 29 29
- 0.24872 1 2 cbr 210 ------- 1 1.0 5.0 29 29
r 0.24932 2 3 cbr 210 ------- 1 1.0 5.0 10 10
+ 0.24932 3 5 cbr 210 ------- 1 1.0 5.0 10 10
- 0.24932 3 5 cbr 210 ------- 1 1.0 5.0 10 10
r 0.24948 1 2 cbr 210 ------- 1 1.0 5.0 23 23
+ 0.24948 2 3 cbr 210 ------- 1 1.0 5.0 23 23
- 0.24948 2 3 cbr 210 ------- 1 1.0 5.0 23 23
r 0.25008 3 5 cbr 210 ------- 1 1.0 5.0 4 4
+ 0.2504 1 2 cbr 210 ------- 1 1.0 5.0 30 30
- 0.2504 1 2 cbr 210 ------- 1 1.0 5.0 30 30
r 0.251 2 3 cbr 210 ------- 1 1.0 5.0 11 11
+ 0.251 3 5 cbr 210 ------- 1 1.0 5.0 11 11
- 0.251 3 5 cbr 210 ------- 1 1.0 5.0 11 11
r 0.25116 1 2 cbr 210 ------- 1 1.0 5.0 24 24
+ 0.25116 2 3 cbr 210 ------- 1 1.0 5.0 24 24
- 0.25116 2 3 cbr 210 ------- 1 1.0 5.0 24 24
r 0.25176 3 5 cbr 210 ------- 1 1.0 5.0 5 5
+ 0.25208 1 2 cbr 210 ------- 1 1.0 5.0 31 31
- 0.25208 1 2 cbr 210 ------- 1 1.0 5.0 31 31
r 0.25268 2 3 cbr 210 ------- 1 1.0 5.0 12 12
+ 0.25268 3 5 cbr 210 ------- 1 1.0 5.0 12 12
- 0.25268 3 5 cbr 210 ------- 1 1.0 5.0 12 12
r 0.25284 1 2 cbr 210 ------- 1 1.0 5.0 25 25
+ 0.25284 2 3 cbr 210 ------- 1 1.0 5.0 25 25
- 0.25284 2 3 cbr 210 ------- 1 1.0 5.0 25 25
r 0.25344 3 5 cbr 210 ------- 1 1.0 5.0 6 6
+ 0.25376 1 2 cbr 210 ------- 1 1.0 5.0 32 32
- 0.25376 1 2 cbr 210 ------- 1 1.0 5.0 32 32
r 0.25436 2 3 cbr 210 ------- 1 1.0 5.0 13 13
+ 0.25436 3 5 cbr 210 ------- 1 1.0 5.0 13 13
- 0.25436 3 5 cbr 210 ------- 1 1.0 5.0 13 13
r 0.25452 1 2 cbr 210 ------- 1 1.0 5.0 26 26
+ 0.25452 2 3 cbr 210 ------- 1 1.0 5.0 26 26
- 0.25452 2 3 cbr 210 ------- 1 1.0 5.0 26 26
r 0.25512 3 5 cbr 210 ------- 1 1.0 5.0 7 7
+ 0.25544 1 2 cbr 210 ------- 1 1.0 5.0 33 33
- 0.25544 1 2 cbr 210 ------- 1 1.0 5.0 33 33
r 0.25604 2 3 cbr 210 ------- 1 1.0 5.0 14 14
+ 0.25604 3 5 cbr 210 ------- 1 1.0 5.0 14 14
- 0.25604 3 5 cbr 210 ------- 1 1.0 5.0 14 14
r 0.2562 1 2 cbr 210 ------- 1 1.0 5.0 27 27
+ 0.2562 2 3 cbr 210 ------- 1 1.0 5.0 27 27
- 0.2562 2 3 cbr 210 ------- 1 1.0 5.0 27 27
r 0.2568 3 5 cbr 210 ------- 1 1.0 5.0 8 8
+ 0.25712 1 2 cbr 210 ------- 1 1.0 5.0 34 34
- 0.25712 1 2 cbr 210 ------- 1 1.0 5.0 34 34
r 0.25772 2 3 cbr 210 ------- 1 1.0 5.0 15 15
+ 0.25772 3 5 cbr 210 ------- 1 1.0 5.0 15 15
- 0.25772 3 5 cbr 210 ------- 1 1.0 5.0 15 15
r 0.25788 1 2 cbr 210 ------- 1 1.0 5.0 28 28
+ 0.25788 2 3 cbr 210 ------- 1 1.0 5.0 28 28
- 0.25788 2 3 cbr 210 ------- 1 1.0 5.0 28 28
r 0.25848 3 5 cbr 210 ------- 1 1.0 5.0 9 9
+ 0.2588 1 2 cbr 210 ------- 1 1.0 5.0 35 35
- 0.2588 1 2 cbr 210 ------- 1 1.0 5.0 35 35
r 0.2594 2 3 cbr 210 ------- 1 1.0 5.0 16 16
+ 0.2594 3 5 cbr 210 ------- 1 1.0 5.0 16 16
- 0.2594 3 5 cbr 210 ------- 1 1.0 5.0 16 16
r 0.25956 1 2 cbr 210 ------- 1 1.0 5.0 29 29
+ 0.25956 2 3 cbr 210 ------- 1 1.0 5.0 29 29
- 0.25956 2 3 cbr 210 ------- 1 1.0 5.0 29 29
r 0.26016 3 5 cbr 210 ------- 1 1.0 5.0 10 10
+ 0.26048 1 2 cbr 210 ------- 1 1.0 5.0 36 36
- 0.26048 1 2 cbr 210 ------- 1 1.0 5.0 36 36
r 0.26108 2 3 cbr 210 ------- 1 1.0 5.0 17 17
+ 0.26108 3 5 cbr 210 ------- 1 1.0 5.0 17 17
- 0.26108 3 5 cbr 210 ------- 1 1.0 5.0 17 17
r 0.26124 1 2 cbr 210 ------- 1 1.0 5.0 30 30
+ 0.26124 2 3 cbr 210 ------- 1 1.0 5.0 30 30
- 0.26124 2 3 cbr 210 ------- 1 1.0 5.0 30 30
r 0.26184 3 5 cbr 210 ------- 1 1.0 5.0 11 11
+ 0.26216 1 2 cbr 210 ------- 1 1.0 5.0 37 37
- 0.26216 1 2 cbr 210 ------- 1 1.0 5.0 37 37
r 0.26276 2 3 cbr 210 ------- 1 1.0 5.0 18 18
+ 0.26276 3 5 cbr 210 ------- 1 1.0 5.0 18 18
- 0.26276 3 5 cbr 210 ------- 1 1.0 5.0 18 18
r 0.26292 1 2 cbr 210 ------- 1 1.0 5.0 31 31
+ 0.26292 2 3 cbr 210 ------- 1 1.0 5.0 31 31
- 0.26292 2 3 cbr 210 ------- 1 1.0 5.0 31 31
r 0.26352 3 5 cbr 210 ------- 1 1.0 5.0 12 12
+ 0.26384 1 2 cbr 210 ------- 1 1.0 5.0 38 38
- 0.26384 1 2 cbr 210 ------- 1 1.0 5.0 38 38
r 0.26444 2 3 cbr 210 ------- 1 1.0 5.0 19 19
+ 0.26444 3 5 cbr 210 ------- 1 1.0 5.0 19 19
- 0.26444 3 5 cbr 210 ------- 1 1.0 5.0 19 19
r 0.2646 1 2 cbr 210 ------- 1 1.0 5.0 32 32
+ 0.2646 2 3 cbr 210 ------- 1 1.0 5.0 32 32
- 0.2646 2 3 cbr 210 ------- 1 1.0 5.0 32 32
r 0.2652 3 5 cbr 210 ------- 1 1.0 5.0 13 13
+ 0.26552 1 2 cbr 210 ------- 1 1.0 5.0 39 39
- 0.26552 1 2 cbr 210 ------- 1 1.0 5.0 39 39
r 0.26612 2 3 cbr 210 ------- 1 1.0 5.0 20 20
+ 0.26612 3 5 cbr 210 ------- 1 1.0 5.0 20 20
- 0.26612 3 5 cbr 210 ------- 1 1.0 5.0 20 20
r 0.26628 1 2 cbr 210 ------- 1 1.0 5.0 33 33
+ 0.26628 2 3 cbr 210 ------- 1 1.0 5.0 33 33
- 0.26628 2 3 cbr 210 ------- 1 1.0 5.0 33 33
r 0.26688 3 5 cbr 210 ------- 1 1.0 5.0 14 14
+ 0.2672 1 2 cbr 210 ------- 1 1.0 5.0 40 40
- 0.2672 1 2 cbr 210 ------- 1 1.0 5.0 40 40
r 0.2678 2 3 cbr 210 ------- 1 1.0 5.0 21 21
+ 0.2678 3 5 cbr 210 ------- 1 1.0 5.0 21 21
- 0.2678 3 5 cbr 210 ------- 1 1.0 5.0 21 21
r 0.26796 1 2 cbr 210 ------- 1 1.0 5.0 34 34
+ 0.26796 2 3 cbr 210 ------- 1 1.0 5.0 34 34
- 0.26796 2 3 cbr 210 ------- 1 1.0 5.0 34 34
r 0.26856 3 5 cbr 210 ------- 1 1.0 5.0 15 15
+ 0.26888 1 2 cbr 210 ------- 1 1.0 5.0 41 41
- 0.26888 1 2 cbr 210 ------- 1 1.0 5.0 41 41
r 0.26948 2 3 cbr 210 ------- 1 1.0 5.0 22 22
+ 0.26948 3 5 cbr 210 ------- 1 1.0 5.0 22 22
- 0.26948 3 5 cbr 210 ------- 1 1.0 5.0 22 22
r 0.26964 1 2 cbr 210 ------- 1 1.0 5.0 35 35
+ 0.26964 2 3 cbr 210 ------- 1 1.0 5.0 35 35
- 0.26964 2 3 cbr 210 ------- 1 1.0 5.0 35 35
r 0.27024 3 5 cbr 210 ------- 1 1.0 5.0 16 16
+ 0.27056 1 2 cbr 210 ------- 1 1.0 5.0 42 42
- 0.27056 1 2 cbr 210 ------- 1 1.0 5.0 42 42
r 0.27116 2 3 cbr 210 ------- 1 1.0 5.0 23 23
+ 0.27116 3 5 cbr 210 ------- 1 1.0 5.0 23 23
- 0.27116 3 5 cbr 210 ------- 1 1.0 5.0 23 23
r 0.27132 1 2 cbr 210 ------- 1 1.0 5.0 36 36
+ 0.27132 2 3 cbr 210 ------- 1 1.0 5.0 36 36
- 0.27132 2 3 cbr 210 ------- 1 1.0 5.0 36 36
r 0.27192 3 5 cbr 210 ------- 1 1.0 5.0 17 17
+ 0.27224 1 2 cbr 210 ------- 1 1.0 5.0 43 43
- 0.27224 1 2 cbr 210 ------- 1 1.0 5.0 43 43
r 0.27284 2 3 cbr 210 ------- 1 1.0 5.0 24 24
+ 0.27284 3 5 cbr 210 ------- 1 1.0 5.0 24 24
- 0.27284 3 5 cbr 210 ------- 1 1.0 5.0 24 24
r 0.273 1 2 cbr 210 ------- 1 1.0 5.0 37 37
+ 0.273 2 3 cbr 210 ------- 1 1.0 5.0 37 37
- 0.273 2 3 cbr 210 ------- 1 1.0 5.0 37 37
r 0.2736 3 5 cbr 210 ------- 1 1.0 5.0 18 18
+ 0.27392 1 2 cbr 210 ------- 1 1.0 5.0 44 44
- 0.27392 1 2 cbr 210 ------- 1 1.0 5.0 44 44
r 0.27452 2 3 cbr 210 ------- 1 1.0 5.0 25 25
+ 0.27452 3 5 cbr 210 ------- 1 1.0 5.0 25 25
- 0.27452 3 5 cbr 210 ------- 1 1.0 5.0 25 25
r 0.27468 1 2 cbr 210 ------- 1 1.0 5.0 38 38
+ 0.27468 2 3 cbr 210 ------- 1 1.0 5.0 38 38
- 0.27468 2 3 cbr 210 ------- 1 1.0 5.0 38 38
r 0.27528 3 5 cbr 210 ------- 1 1.0 5.0 19 19
+ 0.2756 1 2 cbr 210 ------- 1 1.0 5.0 45 45
- 0.2756 1 2 cbr 210 ------- 1 1.0 5.0 45 45
r 0.2762 2 3 cbr 210 ------- 1 1.0 5.0 26 26
+ 0.2762 3 5 cbr 210 ------- 1 1.0 5.0 26 26
- 0.2762 3 5 cbr 210 ------- 1 1.0 5.0 26 26
r 0.27636 1 2 cbr 210 ------- 1 1.0 5.0 39 39
+ 0.27636 2 3 cbr 210 ------- 1 1.0 5.0 39 39
- 0.27636 2 3 cbr 210 ------- 1 1.0 5.0 39 39
r 0.27696 3 5 cbr 210 ------- 1 1.0 5.0 20 20
+ 0.27728 1 2 cbr 210 ------- 1 1.0 5.0 46 46
- 0.27728 1 2 cbr 210 ------- 1 1.0 5.0 46 46
r 0.27788 2 3 cbr 210 ------- 1 1.0 5.0 27 27
+ 0.27788 3 5 cbr 210 ------- 1 1.0 5.0 27 27
- 0.27788 3 5 cbr 210 ------- 1 1.0 5.0 27 27
r 0.27804 1 2 cbr 210 ------- 1 1.0 5.0 40 40
+ 0.27804 2 3 cbr 210 ------- 1 1.0 5.0 40 40
- 0.27804 2 3 cbr 210 ------- 1 1.0 5.0 40 40
r 0.27864 3 5 cbr 210 ------- 1 1.0 5.0 21 21
+ 0.27896 1 2 cbr 210 ------- 1 1.0 5.0 47 47
- 0.27896 1 2 cbr 210 ------- 1 1.0 5.0 47 47
r 0.27956 2 3 cbr 210 ------- 1 1.0 5.0 28 28
+ 0.27956 3 5 cbr 210 ------- 1 1.0 5.0 28 28
- 0.27956 3 5 cbr 210 ------- 1 1.0 5.0 28 28
r 0.27972 1 2 cbr 210 ------- 1 1.0 5.0 41 41
+ 0.27972 2 3 cbr 210 ------- 1 1.0 5.0 41 41
- 0.27972 2 3 cbr 210 ------- 1 1.0 5.0 41 41
r 0.28032 3 5 cbr 210 ------- 1 1.0 5.0 22 22
+ 0.28064 1 2 cbr 210 ------- 1 1.0 5.0 48 48
- 0.28064 1 2 cbr 210 ------- 1 1.0 5.0 48 48
r 0.28124 2 3 cbr 210 ------- 1 1.0 5.0 29 29
+ 0.28124 3 5 cbr 210 ------- 1 1.0 5.0 29 29
- 0.28124 3 5 cbr 210 ------- 1 1.0 5.0 29 29
r 0.2814 1 2 cbr 210 ------- 1 1.0 5.0 42 42
+ 0.2814 2 3 cbr 210 ------- 1 1.0 5.0 42 42
- 0.2814 2 3 cbr 210 ------- 1 1.0 5.0 42 42
r 0.282 3 5 cbr 210 ------- 1 1.0 5.0 23 23
+ 0.28232 1 2 cbr 210 ------- 1 1.0 5.0 49 49
- 0.28232 1 2 cbr 210 ------- 1 1.0 5.0 49 49
r 0.28292 2 3 cbr 210 ------- 1 1.0 5.0 30 30
+ 0.28292 3 5 cbr 210 ------- 1 1.0 5.0 30 30
- 0.28292 3 5 cbr 210 ------- 1 1.0 5.0 30 30
r 0.28308 1 2 cbr 210 ------- 1 1.0 5.0 43 43
+ 0.28308 2 3 cbr 210 ------- 1 1.0 5.0 43 43
- 0.28308 2 3 cbr 210 ------- 1 1.0 5.0 43 43
r 0.28368 3 5 cbr 210 ------- 1 1.0 5.0 24 24
+ 0.284 1 2 cbr 210 ------- 1 1.0 5.0 50 50
- 0.284 1 2 cbr 210 ------- 1 1.0 5.0 50 50
r 0.2846 2 3 cbr 210 ------- 1 1.0 5.0 31 31
+ 0.2846 3 5 cbr 210 ------- 1 1.0 5.0 31 31
- 0.2846 3 5 cbr 210 ------- 1 1.0 5.0 31 31
r 0.28476 1 2 cbr 210 ------- 1 1.0 5.0 44 44
+ 0.28476 2 3 cbr 210 ------- 1 1.0 5.0 44 44
- 0.28476 2 3 cbr 210 ------- 1 1.0 5.0 44 44
r 0.28536 3 5 cbr 210 ------- 1 1.0 5.0 25 25
+ 0.28568 1 2 cbr 210 ------- 1 1.0 5.0 51 51
- 0.28568 1 2 cbr 210 ------- 1 1.0 5.0 51 51
r 0.28628 2 3 cbr 210 ------- 1 1.0 5.0 32 32
+ 0.28628 3 5 cbr 210 ------- 1 1.0 5.0 32 32
- 0.28628 3 5 cbr 210 ------- 1 1.0 5.0 32 32
r 0.28644 1 2 cbr 210 ------- 1 1.0 5.0 45 45
+ 0.28644 2 3 cbr 210 ------- 1 1.0 5.0 45 45
- 0.28644 2 3 cbr 210 ------- 1 1.0 5.0 45 45
r 0.28704 3 5 cbr 210 ------- 1 1.0 5.0 26 26
+ 0.28736 1 2 cbr 210 ------- 1 1.0 5.0 52 52
- 0.28736 1 2 cbr 210 ------- 1 1.0 5.0 52 52
r 0.28796 2 3 cbr 210 ------- 1 1.0 5.0 33 33
+ 0.28796 3 5 cbr 210 ------- 1 1.0 5.0 33 33
- 0.28796 3 5 cbr 210 ------- 1 1.0 5.0 33 33
r 0.28812 1 2 cbr 210 ------- 1 1.0 5.0 46 46
+ 0.28812 2 3 cbr 210 ------- 1 1.0 5.0 46 46
- 0.28812 2 3 cbr 210 ------- 1 1.0 5.0 46 46
r 0.28872 3 5 cbr 210 ------- 1 1.0 5.0 27 27
+ 0.28904 1 2 cbr 210 ------- 1 1.0 5.0 53 53
- 0.28904 1 2 cbr 210 ------- 1 1.0 5.0 53 53
r 0.28964 2 3 cbr 210 ------- 1 1.0 5.0 34 34
+ 0.28964 3 5 cbr 210 ------- 1 1.0 5.0 34 34
- 0.28964 3 5 cbr 210 ------- 1 1.0 5.0 34 34
r 0.2898 1 2 cbr 210 ------- 1 1.0 5.0 47 47
+ 0.2898 2 3 cbr 210 ------- 1 1.0 5.0 47 47
- 0.2898 2 3 cbr 210 ------- 1 1.0 5.0 47 47
r 0.2904 3 5 cbr 210 ------- 1 1.0 5.0 28 28
+ 0.29072 1 2 cbr 210 ------- 1 1.0 5.0 54 54
- 0.29072 1 2 cbr 210 ------- 1 1.0 5.0 54 54
r 0.29132 2 3 cbr 210 ------- 1 1.0 5.0 35 35
+ 0.29132 3 5 cbr 210 ------- 1 1.0 5.0 35 35
- 0.29132 3 5 cbr 210 ------- 1 1.0 5.0 35 35
r 0.29148 1 2 cbr 210 ------- 1 1.0 5.0 48 48
+ 0.29148 2 3 cbr 210 ------- 1 1.0 5.0 48 48
- 0.29148 2 3 cbr 210 ------- 1 1.0 5.0 48 48
r 0.29208 3 5 cbr 210 ------- 1 1.0 5.0 29 29
+ 0.2924 1 2 cbr 210 ------- 1 1.0 5.0 55 55
- 0.2924 1 2 cbr 210 ------- 1 1.0 5.0 55 55
r 0.293 2 3 cbr 210 ------- 1 1.0 5.0 36 36
+ 0.293 3 5 cbr 210 ------- 1 1.0 5.0 36 36
- 0.293 3 5 cbr 210 ------- 1 1.0 5.0 36 36
r 0.29316 1 2 cbr 210 ------- 1 1.0 5.0 49 49
+ 0.29316 2 3 cbr 210 ------- 1 1.0 5.0 49 49
- 0.29316 2 3 cbr 210 ------- 1 1.0 5.0 49 49
r 0.29376 3 5 cbr 210 ------- 1 1.0 5.0 30 30
+ 0.29408 1 2 cbr 210 ------- 1 1.0 5.0 56 56
- 0.29408 1 2 cbr 210 ------- 1 1.0 5.0 56 56
r 0.29468 2 3 cbr 210 ------- 1 1.0 5.0 37 37
+ 0.29468 3 5 cbr 210 ------- 1 1.0 5.0 37 37
- 0.29468 3 5 cbr 210 ------- 1 1.0 5.0 37 37
r 0.29484 1 2 cbr 210 ------- 1 1.0 5.0 50 50
+ 0.29484 2 3 cbr 210 ------- 1 1.0 5.0 50 50
- 0.29484 2 3 cbr 210 ------- 1 1.0 5.0 50 50
r 0.29544 3 5 cbr 210 ------- 1 1.0 5.0 31 31
+ 0.29576 1 2 cbr 210 ------- 1 1.0 5.0 57 57
- 0.29576 1 2 cbr 210 ------- 1 1.0 5.0 57 57
r 0.29636 2 3 cbr 210 ------- 1 1.0 5.0 38 38
+ 0.29636 3 5 cbr 210 ------- 1 1.0 5.0 38 38
- 0.29636 3 5 cbr 210 ------- 1 1.0 5.0 38 38
r 0.29652 1 2 cbr 210 ------- 1 1.0 5.0 51 51
+ 0.29652 2 3 cbr 210 ------- 1 1.0 5.0 51 51
- 0.29652 2 3 cbr 210 ------- 1 1.0 5.0 51 51
r 0.29712 3 5 cbr 210 ------- 1 1.0 5.0 32 32
+ 0.29744 1 2 cbr 210 ------- 1 1.0 5.0 58 58
- 0.29744 1 2 cbr 210 ------- 1 1.0 5.0 58 58
r 0.29804 2 3 cbr 210 ------- 1 1.0 5.0 39 39
+ 0.29804 3 5 cbr 210 ------- 1 1.0 5.0 39 39
- 0.29804 3 5 cbr 210 ------- 1 1.0 5.0 39 39
r 0.2982 1 2 cbr 210 ------- 1 1.0 5.0 52 52
+ 0.2982 2 3 cbr 210 ------- 1 1.0 5.0 52 52
- 0.2982 2 3 cbr 210 ------- 1 1.0 5.0 52 52
r 0.2988 3 5 cbr 210 ------- 1 1.0 5.0 33 33
+ 0.29912 1 2 cbr 210 ------- 1 1.0 5.0 59 59
- 0.29912 1 2 cbr 210 ------- 1 1.0 5.0 59 59
r 0.29972 2 3 cbr 210 ------- 1 1.0 5.0 40 40
+ 0.29972 3 5 cbr 210 ------- 1 1.0 5.0 40 40
- 0.29972 3 5 cbr 210 ------- 1 1.0 5.0 40 40
r 0.29988 1 2 cbr 210 ------- 1 1.0 5.0 53 53
+ 0.29988 2 3 cbr 210 ------- 1 1.0 5.0 53 53
- 0.29988 2 3 cbr 210 ------- 1 1.0 5.0 53 53
r 0.30048 3 5 cbr 210 ------- 1 1.0 5.0 34 34
+ 0.3008 1 2 cbr 210 ------- 1 1.0 5.0 60 60
- 0.3008 1 2 cbr 210 ------- 1 1.0 5.0 60 60
r 0.3014 2 3 cbr 210 ------- 1 1.0 5.0 41 41
+ 0.3014 3 5 cbr 210 ------- 1 1.0 5.0 41 41
- 0.3014 3 5 cbr 210 ------- 1 1.0 5.0 41 41
r 0.30156 1 2 cbr 210 ------- 1 1.0 5.0 54 54
+ 0.30156 2 3 cbr 210 ------- 1 1.0 5.0 54 54
- 0.30156 2 3 cbr 210 ------- 1 1.0 5.0 54 54
r 0.30216 3 5 cbr 210 ------- 1 1.0 5.0 35 35
+ 0.30248 1 2 cbr 210 ------- 1 1.0 5.0 61 61
- 0.30248 1 2 cbr 210 ------- 1 1.0 5.0 61 61
r 0.30308 2 3 cbr 210 ------- 1 1.0 5.0 42 42
+ 0.30308 3 5 cbr 210 ------- 1 1.0 5.0 42 42
- 0.30308 3 5 cbr 210 ------- 1 1.0 5.0 42 42
r 0.30324 1 2 cbr 210 ------- 1 1.0 5.0 55 55
+ 0.30324 2 3 cbr 210 ------- 1 1.0 5.0 55 55
- 0.30324 2 3 cbr 210 ------- 1 1.0 5.0 55 55
r 0.30384 3 5 cbr 210 ------- 1 1.0 5.0 36 36
+ 0.30416 1 2 cbr 210 ------- 1 1.0 5.0 62 62
- 0.30416 1 2 cbr 210 ------- 1 1.0 5.0 62 62
r 0.30476 2 3 cbr 210 ------- 1 1.0 5.0 43 43
+ 0.30476 3 5 cbr 210 ------- 1 1.0 5.0 43 43
- 0.30476 3 5 cbr 210 ------- 1 1.0 5.0 43 43
r 0.30492 1 2 cbr 210 ------- 1 1.0 5.0 56 56
+ 0.30492 2 3 cbr 210 ------- 1 1.0 5.0 56 56
- 0.30492 2 3 cbr 210 ------- 1 1.0 5.0 56 56
r 0.30552 3 5 cbr 210 ------- 1 1.0 5.0 37 37
+ 0.30584 1 2 cbr 210 ------- 1 1.0 5.0 63 63
- 0.30584 1 2 cbr 210 ------- 1 1.0 5.0 63 63
r 0.30644 2 3 cbr 210 ------- 1 1.0 5.0 44 44
+ 0.30644 3 5 cbr 210 ------- 1 1.0 5.0 44 44
- 0.30644 3 5 cbr 210 ------- 1 1.0 5.0 44 44
r 0.3066 1 2 cbr 210 ------- 1 1.0 5.0 57 57
+ 0.3066 2 3 cbr 210 ------- 1 1.0 5.0 57 57
- 0.3066 2 3 cbr 210 ------- 1 1.0 5.0 57 57
r 0.3072 3 5 cbr 210 ------- 1 1.0 5.0 38 38
+ 0.30752 1 2 cbr 210 ------- 1 1.0 5.0 64 64
- 0.30752 1 2 cbr 210 ------- 1 1.0 5.0 64 64
r 0.30812 2 3 cbr 210 ------- 1 1.0 5.0 45 45
+ 0.30812 3 5 cbr 210 ------- 1 1.0 5.0 45 45
- 0.30812 3 5 cbr 210 ------- 1 1.0 5.0 45 45
r 0.30828 1 2 cbr 210 ------- 1 1.0 5.0 58 58
+ 0.30828 2 3 cbr 210 ------- 1 1.0 5.0 58 58
- 0.30828 2 3 cbr 210 ------- 1 1.0 5.0 58 58
r 0.30888 3 5 cbr 210 ------- 1 1.0 5.0 39 39
+ 0.3092 1 2 cbr 210 ------- 1 1.0 5.0 65 65
- 0.3092 1 2 cbr 210 ------- 1 1.0 5.0 65 65
r 0.3098 2 3 cbr 210 ------- 1 1.0 5.0 46 46
+ 0.3098 3 5 cbr 210 ------- 1 1.0 5.0 46 46
- 0.3098 3 5 cbr 210 ------- 1 1.0 5.0 46 46
r 0.30996 1 2 cbr 210 ------- 1 1.0 5.0 59 59
+ 0.30996 2 3 cbr 210 ------- 1 1.0 5.0 59 59
- 0.30996 2 3 cbr 210 ------- 1 1.0 5.0 59 59
r 0.31056 3 5 cbr 210 ------- 1 1.0 5.0 40 40
+ 0.31088 1 2 cbr 210 ------- 1 1.0 5.0 66 66
- 0.31088 1 2 cbr 210 ------- 1 1.0 5.0 66 66
r 0.31148 2 3 cbr 210 ------- 1 1.0 5.0 47 47
+ 0.31148 3 5 cbr 210 ------- 1 1.0 5.0 47 47
- 0.31148 3 5 cbr 210 ------- 1 1.0 5.0 47 47
r 0.31164 1 2 cbr 210 ------- 1 1.0 5.0 60 60
+ 0.31164 2 3 cbr 210 ------- 1 1.0 5.0 60 60
- 0.31164 2 3 cbr 210 ------- 1 1.0 5.0 60 60
r 0.31224 3 5 cbr 210 ------- 1 1.0 5.0 41 41
+ 0.31256 1 2 cbr 210 ------- 1 1.0 5.0 67 67
- 0.31256 1 2 cbr 210 ------- 1 1.0 5.0 67 67
r 0.31316 2 3 cbr 210 ------- 1 1.0 5.0 48 48
+ 0.31316 3 5 cbr 210 ------- 1 1.0 5.0 48 48
- 0.31316 3 5 cbr 210 ------- 1 1.0 5.0 48 48
r 0.31332 1 2 cbr 210 ------- 1 1.0 5.0 61 61
+ 0.31332 2 3 cbr 210 ------- 1 1.0 5.0 61 61
- 0.31332 2 3 cbr 210 ------- 1 1.0 5.0 61 61
r 0.31392 3 5 cbr 210 ------- 1 1.0 5.0 42 42
+ 0.31424 1 2 cbr 210 ------- 1 1.0 5.0 68 68
- 0.31424 1 2 cbr 210 ------- 1 1.0 5.0 68 68
r 0.31484 2 3 cbr 210 ------- 1 1.0 5.0 49 49
+ 0.31484 3 5 cbr 210 ------- 1 1.0 5.0 49 49
- 0.31484 3 5 cbr 210 ------- 1 1.0 5.0 49 49
r 0.315 1 2 cbr 210 ------- 1 1.0 5.0 62 62
+ 0.315 2 3 cbr 210 ------- 1 1.0 5.0 62 62
- 0.315 2 3 cbr 210 ------- 1 1.0 5.0 62 62
r 0.3156 3 5 cbr 210 ------- 1 1.0 5.0 43 43
+ 0.31592 1 2 cbr 210 ------- 1 1.0 5.0 69 69
- 0.31592 1 2 cbr 210 ------- 1 1.0 5.0 69 69
r 0.31652 2 3 cbr 210 ------- 1 1.0 5.0 50 50
+ 0.31652 3 5 cbr 210 ------- 1 1.0 5.0 50 50
- 0.31652 3 5 cbr 210 ------- 1 1.0 5.0 50 50
r 0.31668 1 2 cbr 210 ------- 1 1.0 5.0 63 63
+ 0.31668 2 3 cbr 210 ------- 1 1.0 5.0 63 63
- 0.31668 2 3 cbr 210 ------- 1 1.0 5.0 63 63
r 0.31728 3 5 cbr 210 ------- 1 1.0 5.0 44 44
+ 0.3176 1 2 cbr 210 ------- 1 1.0 5.0 70 70
- 0.3176 1 2 cbr 210 ------- 1 1.0 5.0 70 70
r 0.3182 2 3 cbr 210 ------- 1 1.0 5.0 51 51
+ 0.3182 3 5 cbr 210 ------- 1 1.0 5.0 51 51
- 0.3182 3 5 cbr 210 ------- 1 1.0 5.0 51 51
r 0.31836 1 2 cbr 210 ------- 1 1.0 5.0 64 64
+ 0.31836 2 3 cbr 210 ------- 1 1.0 5.0 64 64
- 0.31836 2 3 cbr 210 ------- 1 1.0 5.0 64 64
r 0.31896 3 5 cbr 210 ------- 1 1.0 5.0 45 45
+ 0.31928 1 2 cbr 210 ------- 1 1.0 5.0 71 71
- 0.31928 1 2 cbr 210 ------- 1 1.0 5.0 71 71
r 0.31988 2 3 cbr 210 ------- 1 1.0 5.0 52 52
+ 0.31988 3 5 cbr 210 ------- 1 1.0 5.0 52 52
- 0.31988 3 5 cbr 210 ------- 1 1.0 5.0 52 52
r 0.32004 1 2 cbr 210 ------- 1 1.0 5.0 65 65
+ 0.32004 2 3 cbr 210 ------- 1 1.0 5.0 65 65
- 0.32004 2 3 cbr 210 ------- 1 1.0 5.0 65 65
r 0.32064 3 5 cbr 210 ------- 1 1.0 5.0 46 46
+ 0.32096 1 2 cbr 210 ------- 1 1.0 5.0 72 72
- 0.32096 1 2 cbr 210 ------- 1 1.0 5.0 72 72
r 0.32156 2 3 cbr 210 ------- 1 1.0 5.0 53 53
+ 0.32156 3 5 cbr 210 ------- 1 1.0 5.0 53 53
- 0.32156 3 5 cbr 210 ------- 1 1.0 5.0 53 53
r 0.32172 1 2 cbr 210 ------- 1 1.0 5.0 66 66
+ 0.32172 2 3 cbr 210 ------- 1 1.0 5.0 66 66
- 0.32172 2 3 cbr 210 ------- 1 1.0 5.0 66 66
r 0.32232 3 5 cbr 210 ------- 1 1.0 5.0 47 47
+ 0.32264 1 2 cbr 210 ------- 1 1.0 5.0 73 73
- 0.32264 1 2 cbr 210 ------- 1 1.0 5.0 73 73
r 0.32324 2 3 cbr 210 ------- 1 1.0 5.0 54 54
+ 0.32324 3 5 cbr 210 ------- 1 1.0 5.0 54 54
- 0.32324 3 5 cbr 210 ------- 1 1.0 5.0 54 54
r 0.3234 1 2 cbr 210 ------- 1 1.0 5.0 67 67
+ 0.3234 2 3 cbr 210 ------- 1 1.0 5.0 67 67
- 0.3234 2 3 cbr 210 ------- 1 1.0 5.0 67 67
r 0.324 3 5 cbr 210 ------- 1 1.0 5.0 48 48
+ 0.32432 1 2 cbr 210 ------- 1 1.0 5.0 74 74
- 0.32432 1 2 cbr 210 ------- 1 1.0 5.0 74 74
r 0.32492 2 3 cbr 210 ------- 1 1.0 5.0 55 55
+ 0.32492 3 5 cbr 210 ------- 1 1.0 5.0 55 55
- 0.32492 3 5 cbr 210 ------- 1 1.0 5.0 55 55
r 0.32508 1 2 cbr 210 ------- 1 1.0 5.0 68 68
+ 0.32508 2 3 cbr 210 ------- 1 1.0 5.0 68 68
- 0.32508 2 3 cbr 210 ------- 1 1.0 5.0 68 68
r 0.32568 3 5 cbr 210 ------- 1 1.0 5.0 49 49
+ 0.326 1 2 cbr 210 ------- 1 1.0 5.0 75 75
- 0.326 1 2 cbr 210 ------- 1 1.0 5.0 75 75
r 0.3266 2 3 cbr 210 ------- 1 1.0 5.0 56 56
+ 0.3266 3 5 cbr 210 ------- 1 1.0 5.0 56 56
- 0.3266 3 5 cbr 210 ------- 1 1.0 5.0 56 56
r 0.32676 1 2 cbr 210 ------- 1 1.0 5.0 69 69
+ 0.32676 2 3 cbr 210 ------- 1 1.0 5.0 69 69
- 0.32676 2 3 cbr 210 ------- 1 1.0 5.0 69 69
r 0.32736 3 5 cbr 210 ------- 1 1.0 5.0 50 50
+ 0.32768 1 2 cbr 210 ------- 1 1.0 5.0 76 76
- 0.32768 1 2 cbr 210 ------- 1 1.0 5.0 76 76
r 0.32828 2 3 cbr 210 ------- 1 1.0 5.0 57 57
+ 0.32828 3 5 cbr 210 ------- 1 1.0 5.0 57 57
- 0.32828 3 5 cbr 210 ------- 1 1.0 5.0 57 57
r 0.32844 1 2 cbr 210 ------- 1 1.0 5.0 70 70
+ 0.32844 2 3 cbr 210 ------- 1 1.0 5.0 70 70
- 0.32844 2 3 cbr 210 ------- 1 1.0 5.0 70 70
r 0.32904 3 5 cbr 210 ------- 1 1.0 5.0 51 51
+ 0.32936 1 2 cbr 210 ------- 1 1.0 5.0 77 77
- 0.32936 1 2 cbr 210 ------- 1 1.0 5.0 77 77
r 0.32996 2 3 cbr 210 ------- 1 1.0 5.0 58 58
+ 0.32996 3 5 cbr 210 ------- 1 1.0 5.0 58 58
- 0.32996 3 5 cbr 210 ------- 1 1.0 5.0 58 58
r 0.33012 1 2 cbr 210 ------- 1 1.0 5.0 71 71
+ 0.33012 2 3 cbr 210 ------- 1 1.0 5.0 71 71
- 0.33012 2 3 cbr 210 ------- 1 1.0 5.0 71 71
r 0.33072 3 5 cbr 210 ------- 1 1.0 5.0 52 52
+ 0.33104 1 2 cbr 210 ------- 1 1.0 5.0 78 78
- 0.33104 1 2 cbr 210 ------- 1 1.0 5.0 78 78
r 0.33164 2 3 cbr 210 ------- 1 1.0 5.0 59 59
+ 0.33164 3 5 cbr 210 ------- 1 1.0 5.0 59 59
- 0.33164 3 5 cbr 210 ------- 1 1.0 5.0 59 59
r 0.3318 1 2 cbr 210 ------- 1 1.0 5.0 72 72
+ 0.3318 2 3 cbr 210 ------- 1 1.0 5.0 72 72
- 0.3318 2 3 cbr 210 ------- 1 1.0 5.0 72 72
r 0.3324 3 5 cbr 210 ------- 1 1.0 5.0 53 53
+ 0.33272 1 2 cbr 210 ------- 1 1.0 5.0 79 79
- 0.33272 1 2 cbr 210 ------- 1 1.0 5.0 79 79
r 0.33332 2 3 cbr 210 ------- 1 1.0 5.0 60 60
+ 0.33332 3 5 cbr 210 ------- 1 1.0 5.0 60 60
- 0.33332 3 5 cbr 210 ------- 1 1.0 5.0 60 60
r 0.33348 1 2 cbr 210 ------- 1 1.0 5.0 73 73
+ 0.33348 2 3 cbr 210 ------- 1 1.0 5.0 73 73
- 0.33348 2 3 cbr 210 ------- 1 1.0 5.0 73 73
r 0.33408 3 5 cbr 210 ------- 1 1.0 5.0 54 54
+ 0.3344 1 2 cbr 210 ------- 1 1.0 5.0 80 80
- 0.3344 1 2 cbr 210 ------- 1 1.0 5.0 80 80
r 0.335 2 3 cbr 210 ------- 1 1.0 5.0 61 61
+ 0.335 3 5 cbr 210 ------- 1 1.0 5.0 61 61
- 0.335 3 5 cbr 210 ------- 1 1.0 5.0 61 61
r 0.33516 1 2 cbr 210 ------- 1 1.0 5.0 74 74
+ 0.33516 2 3 cbr 210 ------- 1 1.0 5.0 74 74
- 0.33516 2 3 cbr 210 ------- 1 1.0 5.0 74 74
r 0.33576 3 5 cbr 210 ------- 1 1.0 5.0 55 55
+ 0.33608 1 2 cbr 210 ------- 1 1.0 5.0 81 81
- 0.33608 1 2 cbr 210 ------- 1 1.0 5.0 81 81
r 0.33668 2 3 cbr 210 ------- 1 1.0 5.0 62 62
+ 0.33668 3 5 cbr 210 ------- 1 1.0 5.0 62 62
- 0.33668 3 5 cbr 210 ------- 1 1.0 5.0 62 62
r 0.33684 1 2 cbr 210 ------- 1 1.0 5.0 75 75
+ 0.33684 2 3 cbr 210 ------- 1 1.0 5.0 75 75
- 0.33684 2 3 cbr 210 ------- 1 1.0 5.0 75 75
r 0.33744 3 5 cbr 210 ------- 1 1.0 5.0 56 56
+ 0.33776 1 2 cbr 210 ------- 1 1.0 5.0 82 82
- 0.33776 1 2 cbr 210 ------- 1 1.0 5.0 82 82
r 0.33836 2 3 cbr 210 ------- 1 1.0 5.0 63 63
+ 0.33836 3 5 cbr 210 ------- 1 1.0 5.0 63 63
- 0.33836 3 5 cbr 210 ------- 1 1.0 5.0 63 63
r 0.33852 1 2 cbr 210 ------- 1 1.0 5.0 76 76
+ 0.33852 2 3 cbr 210 ------- 1 1.0 5.0 76 76
- 0.33852 2 3 cbr 210 ------- 1 1.0 5.0 76 76
r 0.33912 3 5 cbr 210 ------- 1 1.0 5.0 57 57
+ 0.33944 1 2 cbr 210 ------- 1 1.0 5.0 83 83
- 0.33944 1 2 cbr 210 ------- 1 1.0 5.0 83 83
r 0.34004 2 3 cbr 210 ------- 1 1.0 5.0 64 64
+ 0.34004 3 5 cbr 210 ------- 1 1.0 5.0 64 64
- 0.34004 3 5 cbr 210 ------- 1 1.0 5.0 64 64
r 0.3402 1 2 cbr 210 ------- 1 1.0 5.0 77 77
+ 0.3402 2 3 cbr 210 ------- 1 1.0 5.0 77 77
- 0.3402 2 3 cbr 210 ------- 1 1.0 5.0 77 77
r 0.3408 3 5 cbr 210 ------- 1 1.0 5.0 58 58
+ 0.34112 1 2 cbr 210 ------- 1 1.0 5.0 84 84
- 0.34112 1 2 cbr 210 ------- 1 1.0 5.0 84 84
r 0.34172 2 3 cbr 210 ------- 1 1.0 5.0 65 65