V -t * -v 1.0a5 -a 0
A -t * -n 1 -p 0 -o 0x7fffffff -c 30 -a 1
A -t * -h 1 -m 1073741823 -s 0
c -t * -i 1 -n Blue
c -t * -i 2 -n Red
n -t * -a 0 -s 0 -S UP -v circle -c black -i black
n -t * -a 1 -s 1 -S UP -v circle -c black -i black
n -t * -a 2 -s 2 -S UP -v circle -c black -i black
n -t * -a 3 -s 3 -S UP -v circle -c black -i black
l -t * -s 0 -d 2 -S UP -r 1000000 -D 0.01 -c black -o right-down
l -t * -s 1 -d 2 -S UP -r 1000000 -D 0.01 -c black -o right-up
l -t * -s 2 -d 3 -S UP -r 500000 -D 0.01 -c black -o right
q -t * -s 2 -d 3 -a 0.5
q -t * -s 3 -d 2 -a 0.5
+ -t 0.5 -s 0 -d 2 -p cbr -e 210 -c 1 -i 0 -a 1 -x {0.0 3.0 0 ------- null}
- -t 0.5 -s 0 -d 2 -p cbr -e 210 -c 1 -i 0 -a 1 -x {0.0 3.0 0 ------- null}
h -t 0.5 -s 0 -d 2 -p cbr -e 210 -c 1 -i 0 -a 1 -x {0.0 3.0 -1 ------- null}
+ -t 0.505 -s 0 -d 2 -p cbr -e 210 -c 1 -i 1 -a 1 -x {0.0 3.0 1 ------- null}
- -t 0.505 -s 0 -d 2 -p cbr -e 210 -c 1 -i 1 -a 1 -x {0.0 3.0 1 ------- null}
h -t 0.505 -s 0 -d 2 -p cbr -e 210 -c 1 -i 1 -a 1 -x {0.0 3.0 -1 ------- null}
+ -t 0.51 -s 0 -d 2 -p cbr -e 210 -c 1 -i 2 -a 1 -x {0.0 3.0 2 ------- null}
- -t 0.51 -s 0 -d 2 -p cbr -e 210 -c 1 -i 2 -a 1 -x {0.0 3.0 2 ------- null}
h -t 0.51 -s 0 -d 2 -p cbr -e 210 -c 1 -i 2 -a 1 -x {0.0 3.0 -1 ------- null}
r -t 0.51168 -s 0 -d 2 -p cbr -e 210 -c 1 -i 0 -a 1 -x {0.0 3.0 0 ------- null}
+ -t 0.51168 -s 2 -d 3 -p cbr -e 210 -c 1 -i 0 -a 1 -x {0.0 3.0 0 ------- null}
- -t 0.51168 -s 2 -d 3 -p cbr -e 210 -c 1 -i 0 -a 1 -x {0.0 3.0 0 ------- null}
h -t 0.51168 -s 2 -d 3 -p cbr -e 210 -c 1 -i 0 -a 1 -x {0.0 3.0 -1 ------- null}
+ -t 0.515 -s 0 -d 2 -p cbr -e 210 -c 1 -i 3 -a 1 -x {0.0 3.0 3 ------- null}
- -t 0.515 -s 0 -d 2 -p cbr -e 210 -c 1 -i 3 -a 1 -x {0.0 3.0 3 ------- null}
h -t 0.515 -s 0 -d 2 -p cbr -e 210 -c 1 -i 3 -a 1 -x {0.0 3.0 -1 ------- null}
r -t 0.51668 -s 0 -d 2 -p cbr -e 210 -c 1 -i 1 -a 1 -x {0.0 3.0 1 ------- null}
+ -t 0.51668 -s 2 -d 3 -p cbr -e 210 -c 1 -i 1 -a 1 -x {0.0 3.0 1 ------- null}
- -t 0.51668 -s 2 -d 3 -p cbr -e 210 -c 1 -i 1 -a 1 -x {0.0 3.0 1 ------- null}
h -t 0.51668 -s 2 -d 3 -p cbr -e 210 -c 1 -i 1 -a 1 -x {0.0 3.0 -1 ------- null}
+ -t 0.52 -s 0 -d 2 -p cbr -e 210 -c 1 -i 4 -a 1 -x {0.0 3.0 4 ------- null}
- -t 0.52 -s 0 -d 2 -p cbr -e 210 -c 1 -i 4 -a 1 -x {0.0 3.0 4 ------- null}
h -t 0.52 -s 0 -d 2 -p cbr -e 210 -c 1 -i 4 -a 1 -x {0.0 3.0 -1 ------- null}
r -t 0.52168 -s 0 -d 2 -p cbr -e 210 -c 1 -i 2 -a 1 -x {0.0 3.0 2 ------- null}
+ -t 0.52168 -s 2 -d 3 -p cbr -e 210 -c 1 -i 2 -a 1 -x {0.0 3.0 2 ------- null}
- -t 0.52168 -s 2 -d 3 -p cbr -e 210 -c 1 -i 2 -a 1 -x {0.0 3.0 2 ------- null}
h -t 0.52168 -s 2 -d 3 -p cbr -e 210 -c 1 -i 2 -a 1 -x {0.0 3.0 -1 ------- null}
+ -t 0.525 -s 0 -d 2 -p cbr -e 210 -c 1 -i 5 -a 1 -x {0.0 3.0 5 ------- null}
- -t 0.525 -s 0 -d 2 -p cbr -e 210 -c 1 -i 5 -a 1 -x {0.0 3.0 5 ------- null}
h -t 0.525 -s 0 -d 2 -p cbr -e 210 -c 1 -i 5 -a 1 -x {0.0 3.0 -1 ------- null}
r -t 0.52504 -s 2 -d 3 -p cbr -e 210 -c 1 -i 0 -a 1 -x {0.0 3.0 0 ------- null}
r -t 0.52668 -s 0 -d 2 -p cbr -e 210 -c 1 -i 3 -a 1 -x {0.0 3.0 3 ------- null}
+ -t 0.52668 -s 2 -d 3 -p cbr -e 210 -c 1 -i 3 -a 1 -x {0.0 3.0 3 ------- null}
- -t 0.52668 -s 2 -d 3 -p cbr -e 210 -c 1 -i 3 -a 1 -x {0.0 3.0 3 ------- null}
h -t 0.52668 -s 2 -d 3 -p cbr -e 210 -c 1 -i 3 -a 1 -x {0.0 3.0 -1 ------- null}
+ -t 0.53 -s 0 -d 2 -p cbr -e 210 -c 1 -i 6 -a 1 -x {0.0 3.0 6 ------- null}
- -t 0.53 -s 0 -d 2 -p cbr -e 210 -c 1 -i 6 -a 1 -x {0.0 3.0 6 ------- null}
h -t 0.53 -s 0 -d 2 -p cbr -e 210 -c 1 -i 6 -a 1 -x {0.0 3.0 -1 ------- null}
r -t 0.53004 -s 2 -d 3 -p cbr -e 210 -c 1 -i 1 -a 1 -x {0.0 3.0 1 ------- null}
r -t 0.53168 -s 0 -d 2 -p cbr -e 210 -c 1 -i 4 -a 1 -x {0.0 3.0 4 ------- null}
+ -t 0.53168 -s 2 -d 3 -p cbr -e 210 -c 1 -i 4 -a 1 -x {0.0 3.0 4 ------- null}
- -t 0.53168 -s 2 -d 3 -p cbr -e 210 -c 1 -i 4 -a 1 -x {0.0 3.0 4 ------- null}
h -t 0.53168 -s 2 -d 3 -p cbr -e 210 -c 1 -i 4 -a 1 -x {0.0 3.0 -1 ------- null}
+ -t 0.535 -s 0 -d 2 -p cbr -e 210 -c 1 -i 7 -a 1 -x {0.0 3.0 7 ------- null}
- -t 0.535 -s 0 -d 2 -p cbr -e 210 -c 1 -i 7 -a 1 -x {0.0 3.0 7 ------- null}
h -t 0.535 -s 0 -d 2 -p cbr -e 210 -c 1 -i 7 -a 1 -x {0.0 3.0 -1 ------- null}
r -t 0.53504 -s 2 -d 3 -p cbr -e 210 -c 1 -i 2 -a 1 -x {0.0 3.0 2 ------- null}
r -t 0.53668 -s 0 -d 2 -p cbr -e 210 -c 1 -i 5 -a 1 -x {0.0 3.0 5 ------- null}
+ -t 0.53668 -s 2 -d 3 -p cbr -e 210 -c 1 -i 5 -a 1 -x {0.0 3.0 5 ------- null}
- -t 0.53668 -s 2 -d 3 -p cbr -e 210 -c 1 -i 5 -a 1 -x {0.0 3.0 5 ------- null}
h -t 0.53668 -s 2 -d 3 -p cbr -e 210 -c 1 -i 5 -a 1 -x {0.0 3.0 -1 ------- null}
+ -t 0.54 -s 0 -d 2 -p cbr -e 210 -c 1 -i 8 -a 1 -x {0.0 3.0 8 ------- null}
- -t 0.54 -s 0 -d 2 -p cbr -e 210 -c 1 -i 8 -a 1 -x {0.0 3.0 8 ------- null}
h -t 0.54 -s 0 -d 2 -p cbr -e 210 -c 1 -i 8 -a 1 -x {0.0 3.0 -1 ------- null}
r -t 0.54004 -s 2 -d 3 -p cbr -e 210 -c 1 -i 3 -a 1 -x {0.0 3.0 3 ------- null}
r -t 0.54168 -s 0 -d 2 -p cbr -e 210 -c 1 -i 6 -a 1 -x {0.0 3.0 6 ------- null}
+ -t 0.54168 -s 2 -d 3 -p cbr -e 210 -c 1 -i 6 -a 1 -x {0.0 3.0 6 ------- null}
- -t 0.54168 -s 2 -d 3 -p cbr -e 210 -c 1 -i 6 -a 1 -x {0.0 3.0 6 ------- null}
h -t 0.54168 -s 2 -d 3 -p cbr -e 210 -c 1 -i 6 -a 1 -x {0.0 3.0 -1 ------- null}
+ -t 0.545 -s 0 -d 2 -p cbr -e 210 -c 1 -i 9 -a 1 -x {0.0 3.0 9 ------- null}
- -t 0.545 -s 0 -d 2 -p cbr -e 210 -c 1 -i 9 -a 1 -x {0.0 3.0 9 ------- null}
h -t 0.545 -s 0 -d 2 -p cbr -e 210 -c 1 -i 9 -a 1 -x {0.0 3.0 -1 ------- null}
r -t 0.54504 -s 2 -d 3 -p cbr -e 210 -c 1 -i 4 -a 1 -x {0.0 3.0 4 ------- null}
r -t 0.54668 -s 0 -d 2 -p cbr -e 210 -c 1 -i 7 -a 1 -x {0.0 3.0 7 ------- null}
+ -t 0.54668 -s 2 -d 3 -p cbr -e 210 -c 1 -i 7 -a 1 -x {0.0 3.0 7 ------- null}
- -t 0.54668 -s 2 -d 3 -p cbr -e 210 -c 1 -i 7 -a 1 -x {0.0 3.0 7 ------- null}
h -t 0.54668 -s 2 -d 3 -p cbr -e 210 -c 1 -i 7 -a 1 -x {0.0 3.0 -1 ------- null}
+ -t 0.55 -s 0 -d 2 -p cbr -e 210 -c 1 -i 10 -a 1 -x {0.0 3.0 10 ------- null}
- -t 0.55 -s 0 -d 2 -p cbr -e 210 -c 1 -i 10 -a 1 -x {0.0 3.0 10 ------- null}
h -t 0.55 -s 0 -d 2 -p cbr -e 210 -c 1 -i 10 -a 1 -x {0.0 3.0 -1 ------- null}
r -t 0.55004 -s 2 -d 3 -p cbr -e 210 -c 1 -i 5 -a 1 -x {0.0 3.0 5 ------- null}
r -t 0.55168 -s 0 -d 2 -p cbr -e 210 -c 1 -i 8 -a 1 -x {0.0 3.0 8 ------- null}
+ -t 0.55168 -s 2 -d 3 -p cbr -e 210 -c 1 -i 8 -a 1 -x {0.0 3.0 8 ------- null}
- -t 0.55168 -s 2 -d 3 -p cbr -e 210 -c 1 -i 8 -a 1 -x {0.0 3.0 8 ------- null}
h -t 0.55168 -s 2 -d 3 -p cbr -e 210 -c 1 -i 8 -a 1 -x {0.0 3.0 -1 ------- null}
+ -t 0.555 -s 0 -d 2 -p cbr -e 210 -c 1 -i 11 -a 1 -x {0.0 3.0 11 ------- null}
- -t 0.555 -s 0 -d 2 -p cbr -e 210 -c 1 -i 11 -a 1 -x {0.0 3.0 11 ------- null}
h -t 0.555 -s 0 -d 2 -p cbr -e 210 -c 1 -i 11 -a 1 -x {0.0 3.0 -1 ------- null}
r -t 0.55504 -s 2 -d 3 -p cbr -e 210 -c 1 -i 6 -a 1 -x {0.0 3.0 6 ------- null}
r -t 0.55668 -s 0 -d 2 -p cbr -e 210 -c 1 -i 9 -a 1 -x {0.0 3.0 9 ------- null}
+ -t 0.55668 -s 2 -d 3 -p cbr -e 210 -c 1 -i 9 -a 1 -x {0.0 3.0 9 ------- null}
- -t 0.55668 -s 2 -d 3 -p cbr -e 210 -c 1 -i 9 -a 1 -x {0.0 3.0 9 ------- null}
h -t 0.55668 -s 2 -d 3 -p cbr -e 210 -c 1 -i 9 -a 1 -x {0.0 3.0 -1 ------- null}
+ -t 0.56 -s 0 -d 2 -p cbr -e 210 -c 1 -i 12 -a 1 -x {0.0 3.0 12 ------- null}
- -t 0.56 -s 0 -d 2 -p cbr -e 210 -c 1 -i 12 -a 1 -x {0.0 3.0 12 ------- null}
h -t 0.56 -s 0 -d 2 -p cbr -e 210 -c 1 -i 12 -a 1 -x {0.0 3.0 -1 ------- null}
r -t 0.56004 -s 2 -d 3 -p cbr -e 210 -c 1 -i 7 -a 1 -x {0.0 3.0 7 ------- null}
r -t 0.56168 -s 0 -d 2 -p cbr -e 210 -c 1 -i 10 -a 1 -x {0.0 3.0 10 ------- null}
+ -t 0.56168 -s 2 -d 3 -p cbr -e 210 -c 1 -i 10 -a 1 -x {0.0 3.0 10 ------- null}
- -t 0.56168 -s 2 -d 3 -p cbr -e 210 -c 1 -i 10 -a 1 -x {0.0 3.0 10 ------- null}
h -t 0.56168 -s 2 -d 3 -p cbr -e 210 -c 1 -i 10 -a 1 -x {0.0 3.0 -1 ------- null}
+ -t 0.565 -s 0 -d 2 -p cbr -e 210 -c 1 -i 13 -a 1 -x {0.0 3.0 13 ------- null}
- -t 0.565 -s 0 -d 2 -p cbr -e 210 -c 1 -i 13 -a 1 -x {0.0 3.0 13 ------- null}
h -t 0.565 -s 0 -d 2 -p cbr -e 210 -c 1 -i 13 -a 1 -x {0.0 3.0 -1 ------- null}
r -t 0.56504 -s 2 -d 3 -p cbr -e 210 -c 1 -i 8 -a 1 -x {0.0 3.0 8 ------- null}
r -t 0.56668 -s 0 -d 2 -p cbr -e 210 -c 1 -i 11 -a 1 -x {0.0 3.0 11 ------- null}
+ -t 0.56668 -s 2 -d 3 -p cbr -e 210 -c 1 -i 11 -a 1 -x {0.0 3.0 11 ------- null}
- -t 0.56668 -s 2 -d 3 -p cbr -e 210 -c 1 -i 11 -a 1 -x {0.0 3.0 11 ------- null}
h -t 0.56668 -s 2 -d 3 -p cbr -e 210 -c 1 -i 11 -a 1 -x {0.0 3.0 -1 ------- null}
+ -t 0.57 -s 0 -d 2 -p cbr -e 210 -c 1 -i 14 -a 1 -x {0.0 3.0 14 ------- null}
- -t 0.57 -s 0 -d 2 -p cbr -e 210 -c 1 -i 14 -a 1 -x {0.0 3.0 14 ------- null}
h -t 0.57 -s 0 -d 2 -p cbr -e 210 -c 1 -i 14 -a 1 -x {0.0 3.0 -1 ------- null}
r -t 0.57004 -s 2 -d 3 -p cbr -e 210 -c 1 -i 9 -a 1 -x {0.0 3.0 9 ------- null}
r -t 0.57168 -s 0 -d 2 -p cbr -e 210 -c 1 -i 12 -a 1 -x {0.0 3.0 12 ------- null}
+ -t 0.57168 -s 2 -d 3 -p cbr -e 210 -c 1 -i 12 -a 1 -x {0.0 3.0 12 ------- null}
- -t 0.57168 -s 2 -d 3 -p cbr -e 210 -c 1 -i 12 -a 1 -x {0.0 3.0 12 ------- null}
h -t 0.57168 -s 2 -d 3 -p cbr -e 210 -c 1 -i 12 -a 1 -x {0.0 3.0 -1 ------- null}
+ -t 0.575 -s 0 -d 2 -p cbr -e 210 -c 1 -i 15 -a 1 -x {0.0 3.0 15 ------- null}
- -t 0.575 -s 0 -d 2 -p cbr -e 210 -c 1 -i 15 -a 1 -x {0.0 3.0 15 ------- null}
h -t 0.575 -s 0 -d 2 -p cbr -e 210 -c 1 -i 15 -a 1 -x {0.0 3.0 -1 ------- null}
r -t 0.57504 -s 2 -d 3 -p cbr -e 210 -c 1 -i 10 -a 1 -x {0.0 3.0 10 ------- null}
r -t 0.57668 -s 0 -d 2 -p cbr -e 210 -c 1 -i 13 -a 1 -x {0.0 3.0 13 ------- null}
+ -t 0.57668 -s 2 -d 3 -p cbr -e 210 -c 1 -i 13 -a 1 -x {0.0 3.0 13 ------- null}
- -t 0.57668 -s 2 -d 3 -p cbr -e 210 -c 1 -i 13 -a 1 -x {0.0 3.0 13 ------- null}
h -t 0.57668 -s 2 -d 3 -p cbr -e 210 -c 1 -i 13 -a 1 -x {0.0 3.0 -1 ------- null}
+ -t 0.58 -s 0 -d 2 -p cbr -e 210 -c 1 -i 16 -a 1 -x {0.0 3.0 16 ------- null}
- -t 0.58 -s 0 -d 2 -p cbr -e 210 -c 1 -i 16 -a 1 -x {0.0 3.0 16 ------- null}
h -t 0.58 -s 0 -d 2 -p cbr -e 210 -c 1 -i 16 -a 1 -x {0.0 3.0 -1 ------- null}
r -t 0.58004 -s 2 -d 3 -p cbr -e 210 -c 1 -i 11 -a 1 -x {0.0 3.0 11 ------- null}
r -t 0.58168 -s 0 -d 2 -p cbr -e 210 -c 1 -i 14 -a 1 -x {0.0 3.0 14 ------- null}
+ -t 0.58168 -s 2 -d 3 -p cbr -e 210 -c 1 -i 14 -a 1 -x {0.0 3.0 14 ------- null}
- -t 0.58168 -s 2 -d 3 -p cbr -e 210 -c 1 -i 14 -a 1 -x {0.0 3.0 14 ------- null}
h -t 0.58168 -s 2 -d 3 -p cbr -e 210 -c 1 -i 14 -a 1 -x {0.0 3.0 -1 ------- null}
+ -t 0.585 -s 0 -d 2 -p cbr -e 210 -c 1 -i 17 -a 1 -x {0.0 3.0 17 ------- null}
- -t 0.585 -s 0 -d 2 -p cbr -e 210 -c 1 -i 17 -a 1 -x {0.0 3.0 17 ------- null}
h -t 0.585 -s 0 -d 2 -p cbr -e 210 -c 1 -i 17 -a 1 -x {0.0 3.0 -1 ------- null}
r -t 0.58504 -s 2 -d 3 -p cbr -e 210 -c 1 -i 12 -a 1 -x {0.0 3.0 12 ------- null}
r -t 0.58668 -s 0 -d 2 -p cbr -e 210 -c 1 -i 15 -a 1 -x {0.0 3.0 15 ------- null}
+ -t 0.58668 -s 2 -d 3 -p cbr -e 210 -c 1 -i 15 -a 1 -x {0.0 3.0 15 ------- null}
- -t 0.58668 -s 2 -d 3 -p cbr -e 210 -c 1 -i 15 -a 1 -x {0.0 3.0 15 ------- null}
h -t 0.58668 -s 2 -d 3 -p cbr -e 210 -c 1 -i 15 -a 1 -x {0.0 3.0 -1 ------- null}
+ -t 0.59 -s 0 -d 2 -p cbr -e 210 -c 1 -i 18 -a 1 -x {0.0 3.0 18 ------- null}
- -t 0.59 -s 0 -d 2 -p cbr -e 210 -c 1 -i 18 -a 1 -x {0.0 3.0 18 ------- null}
h -t 0.59 -s 0 -d 2 -p cbr -e 210 -c 1 -i 18 -a 1 -x {0.0 3.0 -1 ------- null}
r -t 0.59004 -s 2 -d 3 -p cbr -e 210 -c 1 -i 13 -a 1 -x {0.0 3.0 13 ------- null}
r -t 0.59168 -s 0 -d 2 -p cbr -e 210 -c 1 -i 16 -a 1 -x {0.0 3.0 16 ------- null}
+ -t 0.59168 -s 2 -d 3 -p cbr -e 210 -c 1 -i 16 -a 1 -x {0.0 3.0 16 ------- null}
- -t 0.59168 -s 2 -d 3 -p cbr -e 210 -c 1 -i 16 -a 1 -x {0.0 3.0 16 ------- null}
h -t 0.59168 -s 2 -d 3 -p cbr -e 210 -c 1 -i 16 -a 1 -x {0.0 3.0 -1 ------- null}
+ -t 0.595 -s 0 -d 2 -p cbr -e 210 -c 1 -i 19 -a 1 -x {0.0 3.0 19 ------- null}
- -t 0.595 -s 0 -d 2 -p cbr -e 210 -c 1 -i 19 -a 1 -x {0.0 3.0 19 ------- null}
h -t 0.595 -s 0 -d 2 -p cbr -e 210 -c 1 -i 19 -a 1 -x {0.0 3.0 -1 ------- null}
r -t 0.59504 -s 2 -d 3 -p cbr -e 210 -c 1 -i 14 -a 1 -x {0.0 3.0 14 ------- null}
r -t 0.59668 -s 0 -d 2 -p cbr -e 210 -c 1 -i 17 -a 1 -x {0.0 3.0 17 ------- null}
+ -t 0.59668 -s 2 -d 3 -p cbr -e 210 -c 1 -i 17 -a 1 -x {0.0 3.0 17 ------- null}
- -t 0.59668 -s 2 -d 3 -p cbr -e 210 -c 1 -i 17 -a 1 -x {0.0 3.0 17 ------- null}
h -t 0.59668 -s 2 -d 3 -p cbr -e 210 -c 1 -i 17 -a 1 -x {0.0 3.0 -1 ------- null}
+ -t 0.6 -s 0 -d 2 -p cbr -e 210 -c 1 -i 20 -a 1 -x {0.0 3.0 20 ------- null}
- -t 0.6 -s 0 -d 2 -p cbr -e 210 -c 1 -i 20 -a 1 -x {0.0 3.0 20 ------- null}
h -t 0.6 -s 0 -d 2 -p cbr -e 210 -c 1 -i 20 -a 1 -x {0.0 3.0 -1 ------- null}
r -t 0.60004 -s 2 -d 3 -p cbr -e 210 -c 1 -i 15 -a 1 -x {0.0 3.0 15 ------- null}
r -t 0.60168 -s 0 -d 2 -p cbr -e 210 -c 1 -i 18 -a 1 -x {0.0 3.0 18 ------- null}
+ -t 0.60168 -s 2 -d 3 -p cbr -e 210 -c 1 -i 18 -a 1 -x {0.0 3.0 18 ------- null}
- -t 0.60168 -s 2 -d 3 -p cbr -e 210 -c 1 -i 18 -a 1 -x {0.0 3.0 18 ------- null}
h -t 0.60168 -s 2 -d 3 -p cbr -e 210 -c 1 -i 18 -a 1 -x {0.0 3.0 -1 ------- null}
+ -t 0.605 -s 0 -d 2 -p cbr -e 210 -c 1 -i 21 -a 1 -x {0.0 3.0 21 ------- null}
- -t 0.605 -s 0 -d 2 -p cbr -e 210 -c 1 -i 21 -a 1 -x {0.0 3.0 21 ------- null}
h -t 0.605 -s 0 -d 2 -p cbr -e 210 -c 1 -i 21 -a 1 -x {0.0 3.0 -1 ------- null}
r -t 0.60504 -s 2 -d 3 -p cbr -e 210 -c 1 -i 16 -a 1 -x {0.0 3.0 16 ------- null}
r -t 0.60668 -s 0 -d 2 -p cbr -e 210 -c 1 -i 19 -a 1 -x {0.0 3.0 19 ------- null}
+ -t 0.60668 -s 2 -d 3 -p cbr -e 210 -c 1 -i 19 -a 1 -x {0.0 3.0 19 ------- null}
- -t 0.60668 -s 2 -d 3 -p cbr -e 210 -c 1 -i 19 -a 1 -x {0.0 3.0 19 ------- null}
h -t 0.60668 -s 2 -d 3 -p cbr -e 210 -c 1 -i 19 -a 1 -x {0.0 3.0 -1 ------- null}
+ -t 0.61 -s 0 -d 2 -p cbr -e 210 -c 1 -i 22 -a 1 -x {0.0 3.0 22 ------- null}
- -t 0.61 -s 0 -d 2 -p cbr -e 210 -c 1 -i 22 -a 1 -x {0.0 3.0 22 ------- null}
h -t 0.61 -s 0 -d 2 -p cbr -e 210 -c 1 -i 22 -a 1 -x {0.0 3.0 -1 ------- null}
r -t 0.61004 -s 2 -d 3 -p cbr -e 210 -c 1 -i 17 -a 1 -x {0.0 3.0 17 ------- null}
r -t 0.61168 -s 0 -d 2 -p cbr -e 210 -c 1 -i 20 -a 1 -x {0.0 3.0 20 ------- null}
+ -t 0.61168 -s 2 -d 3 -p cbr -e 210 -c 1 -i 20 -a 1 -x {0.0 3.0 20 ------- null}
- -t 0.61168 -s 2 -d 3 -p cbr -e 210 -c 1 -i 20 -a 1 -x {0.0 3.0 20 ------- null}
h -t 0.61168 -s 2 -d 3 -p cbr -e 210 -c 1 -i 20 -a 1 -x {0.0 3.0 -1 ------- null}
+ -t 0.615 -s 0 -d 2 -p cbr -e 210 -c 1 -i 23 -a 1 -x {0.0 3.0 23 ------- null}
- -t 0.615 -s 0 -d 2 -p cbr -e 210 -c 1 -i 23 -a 1 -x {0.0 3.0 23 ------- null}
h -t 0.615 -s 0 -d 2 -p cbr -e 210 -c 1 -i 23 -a 1 -x {0.0 3.0 -1 ------- null}
r -t 0.61504 -s 2 -d 3 -p cbr -e 210 -c 1 -i 18 -a 1 -x {0.0 3.0 18 ------- null}
r -t 0.61668 -s 0 -d 2 -p cbr -e 210 -c 1 -i 21 -a 1 -x {0.0 3.0 21 ------- null}
+ -t 0.61668 -s 2 -d 3 -p cbr -e 210 -c 1 -i 21 -a 1 -x {0.0 3.0 21 ------- null}
- -t 0.61668 -s 2 -d 3 -p cbr -e 210 -c 1 -i 21 -a 1 -x {0.0 3.0 21 ------- null}
h -t 0.61668 -s 2 -d 3 -p cbr -e 210 -c 1 -i 21 -a 1 -x {0.0 3.0 -1 ------- null}
+ -t 0.62 -s 0 -d 2 -p cbr -e 210 -c 1 -i 24 -a 1 -x {0.0 3.0 24 ------- null}
- -t 0.62 -s 0 -d 2 -p cbr -e 210 -c 1 -i 24 -a 1 -x {0.0 3.0 24 ------- null}
h -t 0.62 -s 0 -d 2 -p cbr -e 210 -c 1 -i 24 -a 1 -x {0.0 3.0 -1 ------- null}
r -t 0.62004 -s 2 -d 3 -p cbr -e 210 -c 1 -i 19 -a 1 -x {0.0 3.0 19 ------- null}
r -t 0.62168 -s 0 -d 2 -p cbr -e 210 -c 1 -i 22 -a 1 -x {0.0 3.0 22 ------- null}
+ -t 0.62168 -s 2 -d 3 -p cbr -e 210 -c 1 -i 22 -a 1 -x {0.0 3.0 22 ------- null}
- -t 0.62168 -s 2 -d 3 -p cbr -e 210 -c 1 -i 22 -a 1 -x {0.0 3.0 22 ------- null}
h -t 0.62168 -s 2 -d 3 -p cbr -e 210 -c 1 -i 22 -a 1 -x {0.0 3.0 -1 ------- null}
+ -t 0.625 -s 0 -d 2 -p cbr -e 210 -c 1 -i 25 -a 1 -x {0.0 3.0 25 ------- null}
- -t 0.625 -s 0 -d 2 -p cbr -e 210 -c 1 -i 25 -a 1 -x {0.0 3.0 25 ------- null}
h -t 0.625 -s 0 -d 2 -p cbr -e 210 -c 1 -i 25 -a 1 -x {0.0 3.0 -1 ------- null}
r -t 0.62504 -s 2 -d 3 -p cbr -e 210 -c 1 -i 20 -a 1 -x {0.0 3.0 20 ------- null}
r -t 0.62668 -s 0 -d 2 -p cbr -e 210 -c 1 -i 23 -a 1 -x {0.0 3.0 23 ------- null}
+ -t 0.62668 -s 2 -d 3 -p cbr -e 210 -c 1 -i 23 -a 1 -x {0.0 3.0 23 ------- null}
- -t 0.62668 -s 2 -d 3 -p cbr -e 210 -c 1 -i 23 -a 1 -x {0.0 3.0 23 ------- null}
h -t 0.62668 -s 2 -d 3 -p cbr -e 210 -c 1 -i 23 -a 1 -x {0.0 3.0 -1 ------- null}
+ -t 0.63 -s 0 -d 2 -p cbr -e 210 -c 1 -i 26 -a 1 -x {0.0 3.0 26 ------- null}
- -t 0.63 -s 0 -d 2 -p cbr -e 210 -c 1 -i 26 -a 1 -x {0.0 3.0 26 ------- null}
h -t 0.63 -s 0 -d 2 -p cbr -e 210 -c 1 -i 26 -a 1 -x {0.0 3.0 -1 ------- null}
r -t 0.63004 -s 2 -d 3 -p cbr -e 210 -c 1 -i 21 -a 1 -x {0.0 3.0 21 ------- null}
r -t 0.63168 -s 0 -d 2 -p cbr -e 210 -c 1 -i 24 -a 1 -x {0.0 3.0 24 ------- null}
+ -t 0.63168 -s 2 -d 3 -p cbr -e 210 -c 1 -i 24 -a 1 -x {0.0 3.0 24 ------- null}
- -t 0.63168 -s 2 -d 3 -p cbr -e 210 -c 1 -i 24 -a 1 -x {0.0 3.0 24 ------- null}
h -t 0.63168 -s 2 -d 3 -p cbr -e 210 -c 1 -i 24 -a 1 -x {0.0 3.0 -1 ------- null}
+ -t 0.635 -s 0 -d 2 -p cbr -e 210 -c 1 -i 27 -a 1 -x {0.0 3.0 27 ------- null}
- -t 0.635 -s 0 -d 2 -p cbr -e 210 -c 1 -i 27 -a 1 -x {0.0 3.0 27 ------- null}
h -t 0.635 -s 0 -d 2 -p cbr -e 210 -c 1 -i 27 -a 1 -x {0.0 3.0 -1 ------- null}
r -t 0.63504 -s 2 -d 3 -p cbr -e 210 -c 1 -i 22 -a 1 -x {0.0 3.0 22 ------- null}
r -t 0.63668 -s 0 -d 2 -p cbr -e 210 -c 1 -i 25 -a 1 -x {0.0 3.0 25 ------- null}
+ -t 0.63668 -s 2 -d 3 -p cbr -e 210 -c 1 -i 25 -a 1 -x {0.0 3.0 25 ------- null}
- -t 0.63668 -s 2 -d 3 -p cbr -e 210 -c 1 -i 25 -a 1 -x {0.0 3.0 25 ------- null}
h -t 0.63668 -s 2 -d 3 -p cbr -e 210 -c 1 -i 25 -a 1 -x {0.0 3.0 -1 ------- null}
+ -t 0.64 -s 0 -d 2 -p cbr -e 210 -c 1 -i 28 -a 1 -x {0.0 3.0 28 ------- null}
- -t 0.64 -s 0 -d 2 -p cbr -e 210 -c 1 -i 28 -a 1 -x {0.0 3.0 28 ------- null}
h -t 0.64 -s 0 -d 2 -p cbr -e 210 -c 1 -i 28 -a 1 -x {0.0 3.0 -1 ------- null}
r -t 0.64004 -s 2 -d 3 -p cbr -e 210 -c 1 -i 23 -a 1 -x {0.0 3.0 23 ------- null}
r -t 0.64168 -s 0 -d 2 -p cbr -e 210 -c 1 -i 26 -a 1 -x {0.0 3.0 26 ------- null}
+ -t 0.64168 -s 2 -d 3 -p cbr -e 210 -c 1 -i 26 -a 1 -x {0.0 3.0 26 ------- null}
- -t 0.64168 -s 2 -d 3 -p cbr -e 210 -c 1 -i 26 -a 1 -x {0.0 3.0 26 ------- null}
h -t 0.64168 -s 2 -d 3 -p cbr -e 210 -c 1 -i 26 -a 1 -x {0.0 3.0 -1 ------- null}
+ -t 0.645 -s 0 -d 2 -p cbr -e 210 -c 1 -i 29 -a 1 -x {0.0 3.0 29 ------- null}
- -t 0.645 -s 0 -d 2 -p cbr -e 210 -c 1 -i 29 -a 1 -x {0.0 3.0 29 ------- null}
h -t 0.645 -s 0 -d 2 -p cbr -e 210 -c 1 -i 29 -a 1 -x {0.0 3.0 -1 ------- null}
r -t 0.64504 -s 2 -d 3 -p cbr -e 210 -c 1 -i 24 -a 1 -x {0.0 3.0 24 ------- null}
r -t 0.64668 -s 0 -d 2 -p cbr -e 210 -c 1 -i 27 -a 1 -x {0.0 3.0 27 ------- null}
+ -t 0.64668 -s 2 -d 3 -p cbr -e 210 -c 1 -i 27 -a 1 -x {0.0 3.0 27 ------- null}
- -t 0.64668 -s 2 -d 3 -p cbr -e 210 -c 1 -i 27 -a 1 -x {0.0 3.0 27 ------- null}
h -t 0.64668 -s 2 -d 3 -p cbr -e 210 -c 1 -i 27 -a 1 -x {0.0 3.0 -1 ------- null}
+ -t 0.65 -s 0 -d 2 -p cbr -e 210 -c 1 -i 30 -a 1 -x {0.0 3.0 30 ------- null}
- -t 0.65 -s 0 -d 2 -p cbr -e 210 -c 1 -i 30 -a 1 -x {0.0 3.0 30 ------- null}
h -t 0.65 -s 0 -d 2 -p cbr -e 210 -c 1 -i 30 -a 1 -x {0.0 3.0 -1 ------- null}
r -t 0.65004 -s 2 -d 3 -p cbr -e 210 -c 1 -i 25 -a 1 -x {0.0 3.0 25 ------- null}
r -t 0.65168 -s 0 -d 2 -p cbr -e 210 -c 1 -i 28 -a 1 -x {0.0 3.0 28 ------- null}
+ -t 0.65168 -s 2 -d 3 -p cbr -e 210 -c 1 -i 28 -a 1 -x {0.0 3.0 28 ------- null}
- -t 0.65168 -s 2 -d 3 -p cbr -e 210 -c 1 -i 28 -a 1 -x {0.0 3.0 28 ------- null}
h -t 0.65168 -s 2 -d 3 -p cbr -e 210 -c 1 -i 28 -a 1 -x {0.0 3.0 -1 ------- null}
+ -t 0.655 -s 0 -d 2 -p cbr -e 210 -c 1 -i 31 -a 1 -x {0.0 3.0 31 ------- null}
- -t 0.655 -s 0 -d 2 -p cbr -e 210 -c 1 -i 31 -a 1 -x {0.0 3.0 31 ------- null}
h -t 0.655 -s 0 -d 2 -p cbr -e 210 -c 1 -i 31 -a 1 -x {0.0 3.0 -1 ------- null}
r -t 0.65504 -s 2 -d 3 -p cbr -e 210 -c 1 -i 26 -a 1 -x {0.0 3.0 26 ------- null}
r -t 0.65668 -s 0 -d 2 -p cbr -e 210 -c 1 -i 29 -a 1 -x {0.0 3.0 29 ------- null}
+ -t 0.65668 -s 2 -d 3 -p cbr -e 210 -c 1 -i 29 -a 1 -x {0.0 3.0 29 ------- null}
- -t 0.65668 -s 2 -d 3 -p cbr -e 210 -c 1 -i 29 -a 1 -x {0.0 3.0 29 ------- null}
h -t 0.65668 -s 2 -d 3 -p cbr -e 210 -c 1 -i 29 -a 1 -x {0.0 3.0 -1 ------- null}
+ -t 0.66 -s 0 -d 2 -p cbr -e 210 -c 1 -i 32 -a 1 -x {0.0 3.0 32 ------- null}
- -t 0.66 -s 0 -d 2 -p cbr -e 210 -c 1 -i 32 -a 1 -x {0.0 3.0 32 ------- null}
h -t 0.66 -s 0 -d 2 -p cbr -e 210 -c 1 -i 32 -a 1 -x {0.0 3.0 -1 ------- null}
r -t 0.66004 -s 2 -d 3 -p cbr -e 210 -c 1 -i 27 -a 1 -x {0.0 3.0 27 ------- null}
r -t 0.66168 -s 0 -d 2 -p cbr -e 210 -c 1 -i 30 -a 1 -x {0.0 3.0 30 ------- null}
+ -t 0.66168 -s 2 -d 3 -p cbr -e 210 -c 1 -i 30 -a 1 -x {0.0 3.0 30 ------- null}
- -t 0.66168 -s 2 -d 3 -p cbr -e 210 -c 1 -i 30 -a 1 -x {0.0 3.0 30 ------- null}
h -t 0.66168 -s 2 -d 3 -p cbr -e 210 -c 1 -i 30 -a 1 -x {0.0 3.0 -1 ------- null}
+ -t 0.665 -s 0 -d 2 -p cbr -e 210 -c 1 -i 33 -a 1 -x {0.0 3.0 33 ------- null}
- -t 0.665 -s 0 -d 2 -p cbr -e 210 -c 1 -i 33 -a 1 -x {0.0 3.0 33 ------- null}
h -t 0.665 -s 0 -d 2 -p cbr -e 210 -c 1 -i 33 -a 1 -x {0.0 3.0 -1 ------- null}
r -t 0.66504 -s 2 -d 3 -p cbr -e 210 -c 1 -i 28 -a 1 -x {0.0 3.0 28 ------- null}
r -t 0.66668 -s 0 -d 2 -p cbr -e 210 -c 1 -i 31 -a 1 -x {0.0 3.0 31 ------- null}
+ -t 0.66668 -s 2 -d 3 -p cbr -e 210 -c 1 -i 31 -a 1 -x {0.0 3.0 31 ------- null}
- -t 0.66668 -s 2 -d 3 -p cbr -e 210 -c 1 -i 31 -a 1 -x {0.0 3.0 31 ------- null}
h -t 0.66668 -s 2 -d 3 -p cbr -e 210 -c 1 -i 31 -a 1 -x {0.0 3.0 -1 ------- null}
+ -t 0.67 -s 0 -d 2 -p cbr -e 210 -c 1 -i 34 -a 1 -x {0.0 3.0 34 ------- null}
- -t 0.67 -s 0 -d 2 -p cbr -e 210 -c 1 -i 34 -a 1 -x {0.0 3.0 34 ------- null}
h -t 0.67 -s 0 -d 2 -p cbr -e 210 -c 1 -i 34 -a 1 -x {0.0 3.0 -1 ------- null}
r -t 0.67004 -s 2 -d 3 -p cbr -e 210 -c 1 -i 29 -a 1 -x {0.0 3.0 29 ------- null}
r -t 0.67168 -s 0 -d 2 -p cbr -e 210 -c 1 -i 32 -a 1 -x {0.0 3.0 32 ------- null}
+ -t 0.67168 -s 2 -d 3 -p cbr -e 210 -c 1 -i 32 -a 1 -x {0.0 3.0 32 ------- null}
- -t 0.67168 -s 2 -d 3 -p cbr -e 210 -c 1 -i 32 -a 1 -x {0.0 3.0 32 ------- null}
h -t 0.67168 -s 2 -d 3 -p cbr -e 210 -c 1 -i 32 -a 1 -x {0.0 3.0 -1 ------- null}
+ -t 0.675 -s 0 -d 2 -p cbr -e 210 -c 1 -i 35 -a 1 -x {0.0 3.0 35 ------- null}
- -t 0.675 -s 0 -d 2 -p cbr -e 210 -c 1 -i 35 -a 1 -x {0.0 3.0 35 ------- null}
h -t 0.675 -s 0 -d 2 -p cbr -e 210 -c 1 -i 35 -a 1 -x {0.0 3.0 -1 ------- null}
r -t 0.67504 -s 2 -d 3 -p cbr -e 210 -c 1 -i 30 -a 1 -x {0.0 3.0 30 ------- null}
r -t 0.67668 -s 0 -d 2 -p cbr -e 210 -c 1 -i 33 -a 1 -x {0.0 3.0 33 ------- null}
+ -t 0.67668 -s 2 -d 3 -p cbr -e 210 -c 1 -i 33 -a 1 -x {0.0 3.0 33 ------- null}
- -t 0.67668 -s 2 -d 3 -p cbr -e 210 -c 1 -i 33 -a 1 -x {0.0 3.0 33 ------- null}
h -t 0.67668 -s 2 -d 3 -p cbr -e 210 -c 1 -i 33 -a 1 -x {0.0 3.0 -1 ------- null}
+ -t 0.68 -s 0 -d 2 -p cbr -e 210 -c 1 -i 36 -a 1 -x {0.0 3.0 36 ------- null}
- -t 0.68 -s 0 -d 2 -p cbr -e 210 -c 1 -i 36 -a 1 -x {0.0 3.0 36 ------- null}
h -t 0.68 -s 0 -d 2 -p cbr -e 210 -c 1 -i 36 -a 1 -x {0.0 3.0 -1 ------- null}
r -t 0.68004 -s 2 -d 3 -p cbr -e 210 -c 1 -i 31 -a 1 -x {0.0 3.0 31 ------- null}
r -t 0.68168 -s 0 -d 2 -p cbr -e 210 -c 1 -i 34 -a 1 -x {0.0 3.0 34 ------- null}
+ -t 0.68168 -s 2 -d 3 -p cbr -e 210 -c 1 -i 34 -a 1 -x {0.0 3.0 34 ------- null}
- -t 0.68168 -s 2 -d 3 -p cbr -e 210 -c 1 -i 34 -a 1 -x {0.0 3.0 34 ------- null}
h -t 0.68168 -s 2 -d 3 -p cbr -e 210 -c 1 -i 34 -a 1 -x {0.0 3.0 -1 ------- null}
+ -t 0.685 -s 0 -d 2 -p cbr -e 210 -c 1 -i 37 -a 1 -x {0.0 3.0 37 ------- null}
- -t 0.685 -s 0 -d 2 -p cbr -e 210 -c 1 -i 37 -a 1 -x {0.0 3.0 37 ------- null}
h -t 0.685 -s 0 -d 2 -p cbr -e 210 -c 1 -i 37 -a 1 -x {0.0 3.0 -1 ------- null}
r -t 0.68504 -s 2 -d 3 -p cbr -e 210 -c 1 -i 32 -a 1 -x {0.0 3.0 32 ------- null}
r -t 0.68668 -s 0 -d 2 -p cbr -e 210 -c 1 -i 35 -a 1 -x {0.0 3.0 35 ------- null}
+ -t 0.68668 -s 2 -d 3 -p cbr -e 210 -c 1 -i 35 -a 1 -x {0.0 3.0 35 ------- null}
- -t 0.68668 -s 2 -d 3 -p cbr -e 210 -c 1 -i 35 -a 1 -x {0.0 3.0 35 ------- null}
h -t 0.68668 -s 2 -d 3 -p cbr -e 210 -c 1 -i 35 -a 1 -x {0.0 3.0 -1 ------- null}
+ -t 0.69 -s 0 -d 2 -p cbr -e 210 -c 1 -i 38 -a 1 -x {0.0 3.0 38 ------- null}
- -t 0.69 -s 0 -d 2 -p cbr -e 210 -c 1 -i 38 -a 1 -x {0.0 3.0 38 ------- null}
h -t 0.69 -s 0 -d 2 -p cbr -e 210 -c 1 -i 38 -a 1 -x {0.0 3.0 -1 ------- null}
r -t 0.69004 -s 2 -d 3 -p cbr -e 210 -c 1 -i 33 -a 1 -x {0.0 3.0 33 ------- null}
r -t 0.69168 -s 0 -d 2 -p cbr -e 210 -c 1 -i 36 -a 1 -x {0.0 3.0 36 ------- null}
+ -t 0.69168 -s 2 -d 3 -p cbr -e 210 -c 1 -i 36 -a 1 -x {0.0 3.0 36 ------- null}
- -t 0.69168 -s 2 -d 3 -p cbr -e 210 -c 1 -i 36 -a 1 -x {0.0 3.0 36 ------- null}
h -t 0.69168 -s 2 -d 3 -p cbr -e 210 -c 1 -i 36 -a 1 -x {0.0 3.0 -1 ------- null}
+ -t 0.695 -s 0 -d 2 -p cbr -e 210 -c 1 -i 39 -a 1 -x {0.0 3.0 39 ------- null}
- -t 0.695 -s 0 -d 2 -p cbr -e 210 -c 1 -i 39 -a 1 -x {0.0 3.0 39 ------- null}
h -t 0.695 -s 0 -d 2 -p cbr -e 210 -c 1 -i 39 -a 1 -x {0.0 3.0 -1 ------- null}
r -t 0.69504 -s 2 -d 3 -p cbr -e 210 -c 1 -i 34 -a 1 -x {0.0 3.0 34 ------- null}
r -t 0.69668 -s 0 -d 2 -p cbr -e 210 -c 1 -i 37 -a 1 -x {0.0 3.0 37 ------- null}
+ -t 0.69668 -s 2 -d 3 -p cbr -e 210 -c 1 -i 37 -a 1 -x {0.0 3.0 37 ------- null}
- -t 0.69668 -s 2 -d 3 -p cbr -e 210 -c 1 -i 37 -a 1 -x {0.0 3.0 37 ------- null}
h -t 0.69668 -s 2 -d 3 -p cbr -e 210 -c 1 -i 37 -a 1 -x {0.0 3.0 -1 ------- null}
+ -t 0.7 -s 0 -d 2 -p cbr -e 210 -c 1 -i 40 -a 1 -x {0.0 3.0 40 ------- null}
- -t 0.7 -s 0 -d 2 -p cbr -e 210 -c 1 -i 40 -a 1 -x {0.0 3.0 40 ------- null}
h -t 0.7 -s 0 -d 2 -p cbr -e 210 -c 1 -i 40 -a 1 -x {0.0 3.0 -1 ------- null}
r -t 0.70004 -s 2 -d 3 -p cbr -e 210 -c 1 -i 35 -a 1 -x {0.0 3.0 35 ------- null}
r -t 0.70168 -s 0 -d 2 -p cbr -e 210 -c 1 -i 38 -a 1 -x {0.0 3.0 38 ------- null}
+ -t 0.70168 -s 2 -d 3 -p cbr -e 210 -c 1 -i 38 -a 1 -x {0.0 3.0 38 ------- null}
- -t 0.70168 -s 2 -d 3 -p cbr -e 210 -c 1 -i 38 -a 1 -x {0.0 3.0 38 ------- null}
h -t 0.70168 -s 2 -d 3 -p cbr -e 210 -c 1 -i 38 -a 1 -x {0.0 3.0 -1 ------- null}
+ -t 0.705 -s 0 -d 2 -p cbr -e 210 -c 1 -i 41 -a 1 -x {0.0 3.0 41 ------- null}
- -t 0.705 -s 0 -d 2 -p cbr -e 210 -c 1 -i 41 -a 1 -x {0.0 3.0 41 ------- null}
h -t 0.705 -s 0 -d 2 -p cbr -e 210 -c 1 -i 41 -a 1 -x {0.0 3.0 -1 ------- null}
r -t 0.70504 -s 2 -d 3 -p cbr -e 210 -c 1 -i 36 -a 1 -x {0.0 3.0 36 ------- null}
r -t 0.70668 -s 0 -d 2 -p cbr -e 210 -c 1 -i 39 -a 1 -x {0.0 3.0 39 ------- null}
+ -t 0.70668 -s 2 -d 3 -p cbr -e 210 -c 1 -i 39 -a 1 -x {0.0 3.0 39 ------- null}
- -t 0.70668 -s 2 -d 3 -p cbr -e 210 -c 1 -i 39 -a 1 -x {0.0 3.0 39 ------- null}
h -t 0.70668 -s 2 -d 3 -p cbr -e 210 -c 1 -i 39 -a 1 -x {0.0 3.0 -1 ------- null}
+ -t 0.71 -s 0 -d 2 -p cbr -e 210 -c 1 -i 42 -a 1 -x {0.0 3.0 42 ------- null}
- -t 0.71 -s 0 -d 2 -p cbr -e 210 -c 1 -i 42 -a 1 -x {0.0 3.0 42 ------- null}
h -t 0.71 -s 0 -d 2 -p cbr -e 210 -c 1 -i 42 -a 1 -x {0.0 3.0 -1 ------- null}
r -t 0.71004 -s 2 -d 3 -p cbr -e 210 -c 1 -i 37 -a 1 -x {0.0 3.0 37 ------- null}
r -t 0.71168 -s 0 -d 2 -p cbr -e 210 -c 1 -i 40 -a 1 -x {0.0 3.0 40 ------- null}
+ -t 0.71168 -s 2 -d 3 -p cbr -e 210 -c 1 -i 40 -a 1 -x {0.0 3.0 40 ------- null}
- -t 0.71168 -s 2 -d 3 -p cbr -e 210 -c 1 -i 40 -a 1 -x {0.0 3.0 40 ------- null}
h -t 0.71168 -s 2 -d 3 -p cbr -e 210 -c 1 -i 40 -a 1 -x {0.0 3.0 -1 ------- null}
+ -t 0.715 -s 0 -d 2 -p cbr -e 210 -c 1 -i 43 -a 1 -x {0.0 3.0 43 ------- null}
- -t 0.715 -s 0 -d 2 -p cbr -e 210 -c 1 -i 43 -a 1 -x {0.0 3.0 43 ------- null}
h -t 0.715 -s 0 -d 2 -p cbr -e 210 -c 1 -i 43 -a 1 -x {0.0 3.0 -1 ------- null}
r -t 0.71504 -s 2 -d 3 -p cbr -e 210 -c 1 -i 38 -a 1 -x {0.0 3.0 38 ------- null}
r -t 0.71668 -s 0 -d 2 -p cbr -e 210 -c 1 -i 41 -a 1 -x {0.0 3.0 41 ------- null}
+ -t 0.71668 -s 2 -d 3 -p cbr -e 210 -c 1 -i 41 -a 1 -x {0.0 3.0 41 ------- null}
- -t 0.71668 -s 2 -d 3 -p cbr -e 210 -c 1 -i 41 -a 1 -x {0.0 3.0 41 ------- null}
h -t 0.71668 -s 2 -d 3 -p cbr -e 210 -c 1 -i 41 -a 1 -x {0.0 3.0 -1 ------- null}
+ -t 0.72 -s 0 -d 2 -p cbr -e 210 -c 1 -i 44 -a 1 -x {0.0 3.0 44 ------- null}
- -t 0.72 -s 0 -d 2 -p cbr -e 210 -c 1 -i 44 -a 1 -x {0.0 3.0 44 ------- null}
h -t 0.72 -s 0 -d 2 -p cbr -e 210 -c 1 -i 44 -a 1 -x {0.0 3.0 -1 ------- null}
r -t 0.72004 -s 2 -d 3 -p cbr -e 210 -c 1 -i 39 -a 1 -x {0.0 3.0 39 ------- null}
r -t 0.72168 -s 0 -d 2 -p cbr -e 210 -c 1 -i 42 -a 1 -x {0.0 3.0 42 ------- null}
+ -t 0.72168 -s 2 -d 3 -p cbr -e 210 -c 1 -i 42 -a 1 -x {0.0 3.0 42 ------- null}
- -t 0.72168 -s 2 -d 3 -p cbr -e 210 -c 1 -i 42 -a 1 -x {0.0 3.0 42 ------- null}
h -t 0.72168 -s 2 -d 3 -p cbr -e 210 -c 1 -i 42 -a 1 -x {0.0 3.0 -1 ------- null}
+ -t 0.725 -s 0 -d 2 -p cbr -e 210 -c 1 -i 45 -a 1 -x {0.0 3.0 45 ------- null}
- -t 0.725 -s 0 -d 2 -p cbr -e 210 -c 1 -i 45 -a 1 -x {0.0 3.0 45 ------- null}
h -t 0.725 -s 0 -d 2 -p cbr -e 210 -c 1 -i 45 -a 1 -x {0.0 3.0 -1 ------- null}
r -t 0.72504 -s 2 -d 3 -p cbr -e 210 -c 1 -i 40 -a 1 -x {0.0 3.0 40 ------- null}
r -t 0.72668 -s 0 -d 2 -p cbr -e 210 -c 1 -i 43 -a 1 -x {0.0 3.0 43 ------- null}
+ -t 0.72668 -s 2 -d 3 -p cbr -e 210 -c 1 -i 43 -a 1 -x {0.0 3.0 43 ------- null}
- -t 0.72668 -s 2 -d 3 -p cbr -e 210 -c 1 -i 43 -a 1 -x {0.0 3.0 43 ------- null}
h -t 0.72668 -s 2 -d 3 -p cbr -e 210 -c 1 -i 43 -a 1 -x {0.0 3.0 -1 ------- null}
+ -t 0.73 -s 0 -d 2 -p cbr -e 210 -c 1 -i 46 -a 1 -x {0.0 3.0 46 ------- null}
- -t 0.73 -s 0 -d 2 -p cbr -e 210 -c 1 -i 46 -a 1 -x {0.0 3.0 46 ------- null}
h -t 0.73 -s 0 -d 2 -p cbr -e 210 -c 1 -i 46 -a 1 -x {0.0 3.0 -1 ------- null}
r -t 0.73004 -s 2 -d 3 -p cbr -e 210 -c 1 -i 41 -a 1 -x {0.0 3.0 41 ------- null}
r -t 0.73168 -s 0 -d 2 -p cbr -e 210 -c 1 -i 44 -a 1 -x {0.0 3.0 44 ------- null}
+ -t 0.73168 -s 2 -d 3 -p cbr -e 210 -c 1 -i 44 -a 1 -x {0.0 3.0 44 ------- null}
- -t 0.73168 -s 2 -d 3 -p cbr -e 210 -c 1 -i 44 -a 1 -x {0.0 3.0 44 ------- null}
h -t 0.73168 -s 2 -d 3 -p cbr -e 210 -c 1 -i 44 -a 1 -x {0.0 3.0 -1 ------- null}
+ -t 0.735 -s 0 -d 2 -p cbr -e 210 -c 1 -i 47 -a 1 -x {0.0 3.0 47 ------- null}
- -t 0.735 -s 0 -d 2 -p cbr -e 210 -c 1 -i 47 -a 1 -x {0.0 3.0 47 ------- null}