+ 0.5 0 1 cbr 1000 ------- 0 0.0 2.0 0 0
- 0.5 0 1 cbr 1000 ------- 0 0.0 2.0 0 0
r 0.558 0 1 cbr 1000 ------- 0 0.0 2.0 0 0
+ 0.558 1 2 cbr 1000 ------- 0 0.0 2.0 0 0
- 0.558 1 2 cbr 1000 ------- 0 0.0 2.0 0 0
r 0.643 1 2 cbr 1000 ------- 0 0.0 2.0 0 0
+ 0.7 0 1 cbr 1000 ------- 0 0.0 2.0 1 1
- 0.7 0 1 cbr 1000 ------- 0 0.0 2.0 1 1
r 0.758 0 1 cbr 1000 ------- 0 0.0 2.0 1 1
+ 0.758 1 2 cbr 1000 ------- 0 0.0 2.0 1 1
- 0.758 1 2 cbr 1000 ------- 0 0.0 2.0 1 1
r 0.843 1 2 cbr 1000 ------- 0 0.0 2.0 1 1
+ 0.9 0 1 cbr 1000 ------- 0 0.0 2.0 2 2
- 0.9 0 1 cbr 1000 ------- 0 0.0 2.0 2 2
r 0.958 0 1 cbr 1000 ------- 0 0.0 2.0 2 2
+ 0.958 1 2 cbr 1000 ------- 0 0.0 2.0 2 2
- 0.958 1 2 cbr 1000 ------- 0 0.0 2.0 2 2
r 1.043 1 2 cbr 1000 ------- 0 0.0 2.0 2 2
+ 1.1 0 1 cbr 1000 ------- 0 0.0 2.0 3 3
- 1.1 0 1 cbr 1000 ------- 0 0.0 2.0 3 3
r 1.158 0 1 cbr 1000 ------- 0 0.0 2.0 3 3
+ 1.158 1 2 cbr 1000 ------- 0 0.0 2.0 3 3
- 1.158 1 2 cbr 1000 ------- 0 0.0 2.0 3 3
r 1.243 1 2 cbr 1000 ------- 0 0.0 2.0 3 3
+ 1.3 0 1 cbr 1000 ------- 0 0.0 2.0 4 4
- 1.3 0 1 cbr 1000 ------- 0 0.0 2.0 4 4
r 1.358 0 1 cbr 1000 ------- 0 0.0 2.0 4 4
+ 1.358 1 2 cbr 1000 ------- 0 0.0 2.0 4 4
- 1.358 1 2 cbr 1000 ------- 0 0.0 2.0 4 4
r 1.443 1 2 cbr 1000 ------- 0 0.0 2.0 4 4
+ 1.5 0 1 cbr 1000 ------- 0 0.0 2.0 5 5
- 1.5 0 1 cbr 1000 ------- 0 0.0 2.0 5 5
r 1.558 0 1 cbr 1000 ------- 0 0.0 2.0 5 5
+ 1.558 1 2 cbr 1000 ------- 0 0.0 2.0 5 5
- 1.558 1 2 cbr 1000 ------- 0 0.0 2.0 5 5
r 1.643 1 2 cbr 1000 ------- 0 0.0 2.0 5 5
+ 1.7 0 1 cbr 1000 ------- 0 0.0 2.0 6 6
- 1.7 0 1 cbr 1000 ------- 0 0.0 2.0 6 6
r 1.758 0 1 cbr 1000 ------- 0 0.0 2.0 6 6
+ 1.758 1 2 cbr 1000 ------- 0 0.0 2.0 6 6
- 1.758 1 2 cbr 1000 ------- 0 0.0 2.0 6 6
r 1.843 1 2 cbr 1000 ------- 0 0.0 2.0 6 6
+ 1.9 0 1 cbr 1000 ------- 0 0.0 2.0 7 7
- 1.9 0 1 cbr 1000 ------- 0 0.0 2.0 7 7
r 1.958 0 1 cbr 1000 ------- 0 0.0 2.0 7 7
+ 1.958 1 2 cbr 1000 ------- 0 0.0 2.0 7 7
- 1.958 1 2 cbr 1000 ------- 0 0.0 2.0 7 7
r 2.043 1 2 cbr 1000 ------- 0 0.0 2.0 7 7
+ 2.1 0 1 cbr 1000 ------- 0 0.0 2.0 8 8
- 2.1 0 1 cbr 1000 ------- 0 0.0 2.0 8 8
r 2.158 0 1 cbr 1000 ------- 0 0.0 2.0 8 8
+ 2.158 1 2 cbr 1000 ------- 0 0.0 2.0 8 8
- 2.158 1 2 cbr 1000 ------- 0 0.0 2.0 8 8
r 2.243 1 2 cbr 1000 ------- 0 0.0 2.0 8 8
+ 2.3 0 1 cbr 1000 ------- 0 0.0 2.0 9 9
- 2.3 0 1 cbr 1000 ------- 0 0.0 2.0 9 9
r 2.358 0 1 cbr 1000 ------- 0 0.0 2.0 9 9
+ 2.358 1 2 cbr 1000 ------- 0 0.0 2.0 9 9
- 2.358 1 2 cbr 1000 ------- 0 0.0 2.0 9 9
r 2.443 1 2 cbr 1000 ------- 0 0.0 2.0 9 9
+ 2.5 0 1 cbr 1000 ------- 0 0.0 2.0 10 10
- 2.5 0 1 cbr 1000 ------- 0 0.0 2.0 10 10
r 2.558 0 1 cbr 1000 ------- 0 0.0 2.0 10 10
+ 2.558 1 2 cbr 1000 ------- 0 0.0 2.0 10 10
- 2.558 1 2 cbr 1000 ------- 0 0.0 2.0 10 10
r 2.643 1 2 cbr 1000 ------- 0 0.0 2.0 10 10
+ 2.7 0 1 cbr 1000 ------- 0 0.0 2.0 11 11
- 2.7 0 1 cbr 1000 ------- 0 0.0 2.0 11 11
r 2.758 0 1 cbr 1000 ------- 0 0.0 2.0 11 11
+ 2.758 1 2 cbr 1000 ------- 0 0.0 2.0 11 11
- 2.758 1 2 cbr 1000 ------- 0 0.0 2.0 11 11
r 2.843 1 2 cbr 1000 ------- 0 0.0 2.0 11 11
+ 2.9 0 1 cbr 1000 ------- 0 0.0 2.0 12 12
- 2.9 0 1 cbr 1000 ------- 0 0.0 2.0 12 12
r 2.958 0 1 cbr 1000 ------- 0 0.0 2.0 12 12
+ 2.958 1 2 cbr 1000 ------- 0 0.0 2.0 12 12
- 2.958 1 2 cbr 1000 ------- 0 0.0 2.0 12 12
r 3.043 1 2 cbr 1000 ------- 0 0.0 2.0 12 12
+ 3.1 0 1 cbr 1000 ------- 0 0.0 2.0 13 13
- 3.1 0 1 cbr 1000 ------- 0 0.0 2.0 13 13
r 3.158 0 1 cbr 1000 ------- 0 0.0 2.0 13 13
+ 3.158 1 2 cbr 1000 ------- 0 0.0 2.0 13 13
- 3.158 1 2 cbr 1000 ------- 0 0.0 2.0 13 13
r 3.243 1 2 cbr 1000 ------- 0 0.0 2.0 13 13
+ 3.3 0 1 cbr 1000 ------- 0 0.0 2.0 14 14
- 3.3 0 1 cbr 1000 ------- 0 0.0 2.0 14 14
r 3.358 0 1 cbr 1000 ------- 0 0.0 2.0 14 14
+ 3.358 1 2 cbr 1000 ------- 0 0.0 2.0 14 14
- 3.358 1 2 cbr 1000 ------- 0 0.0 2.0 14 14
r 3.443 1 2 cbr 1000 ------- 0 0.0 2.0 14 14
+ 3.5 0 1 cbr 1000 ------- 0 0.0 2.0 15 15
- 3.5 0 1 cbr 1000 ------- 0 0.0 2.0 15 15
r 3.558 0 1 cbr 1000 ------- 0 0.0 2.0 15 15
+ 3.558 1 2 cbr 1000 ------- 0 0.0 2.0 15 15
- 3.558 1 2 cbr 1000 ------- 0 0.0 2.0 15 15
r 3.643 1 2 cbr 1000 ------- 0 0.0 2.0 15 15
+ 3.7 0 1 cbr 1000 ------- 0 0.0 2.0 16 16
- 3.7 0 1 cbr 1000 ------- 0 0.0 2.0 16 16
r 3.758 0 1 cbr 1000 ------- 0 0.0 2.0 16 16
+ 3.758 1 2 cbr 1000 ------- 0 0.0 2.0 16 16
- 3.758 1 2 cbr 1000 ------- 0 0.0 2.0 16 16
r 3.843 1 2 cbr 1000 ------- 0 0.0 2.0 16 16
+ 3.9 0 1 cbr 1000 ------- 0 0.0 2.0 17 17
- 3.9 0 1 cbr 1000 ------- 0 0.0 2.0 17 17
r 3.958 0 1 cbr 1000 ------- 0 0.0 2.0 17 17
+ 3.958 1 2 cbr 1000 ------- 0 0.0 2.0 17 17
- 3.958 1 2 cbr 1000 ------- 0 0.0 2.0 17 17
r 4.043 1 2 cbr 1000 ------- 0 0.0 2.0 17 17
+ 4.1 0 1 cbr 1000 ------- 0 0.0 2.0 18 18
- 4.1 0 1 cbr 1000 ------- 0 0.0 2.0 18 18
r 4.158 0 1 cbr 1000 ------- 0 0.0 2.0 18 18
+ 4.158 1 2 cbr 1000 ------- 0 0.0 2.0 18 18
- 4.158 1 2 cbr 1000 ------- 0 0.0 2.0 18 18
r 4.243 1 2 cbr 1000 ------- 0 0.0 2.0 18 18
+ 4.3 0 1 cbr 1000 ------- 0 0.0 2.0 19 19
- 4.3 0 1 cbr 1000 ------- 0 0.0 2.0 19 19
r 4.358 0 1 cbr 1000 ------- 0 0.0 2.0 19 19
+ 4.358 1 2 cbr 1000 ------- 0 0.0 2.0 19 19
- 4.358 1 2 cbr 1000 ------- 0 0.0 2.0 19 19
r 4.443 1 2 cbr 1000 ------- 0 0.0 2.0 19 19
+ 4.5 0 1 cbr 1000 ------- 0 0.0 2.0 20 20
- 4.5 0 1 cbr 1000 ------- 0 0.0 2.0 20 20
r 4.558 0 1 cbr 1000 ------- 0 0.0 2.0 20 20
+ 4.558 1 2 cbr 1000 ------- 0 0.0 2.0 20 20
- 4.558 1 2 cbr 1000 ------- 0 0.0 2.0 20 20
r 4.643 1 2 cbr 1000 ------- 0 0.0 2.0 20 20
+ 4.7 0 1 cbr 1000 ------- 0 0.0 2.0 21 21
- 4.7 0 1 cbr 1000 ------- 0 0.0 2.0 21 21
r 4.758 0 1 cbr 1000 ------- 0 0.0 2.0 21 21
+ 4.758 1 2 cbr 1000 ------- 0 0.0 2.0 21 21
- 4.758 1 2 cbr 1000 ------- 0 0.0 2.0 21 21
r 4.843 1 2 cbr 1000 ------- 0 0.0 2.0 21 21
+ 4.9 0 1 cbr 1000 ------- 0 0.0 2.0 22 22
- 4.9 0 1 cbr 1000 ------- 0 0.0 2.0 22 22
r 4.958 0 1 cbr 1000 ------- 0 0.0 2.0 22 22
+ 4.958 1 2 cbr 1000 ------- 0 0.0 2.0 22 22
- 4.958 1 2 cbr 1000 ------- 0 0.0 2.0 22 22
r 5.043 1 2 cbr 1000 ------- 0 0.0 2.0 22 22
+ 5.1 0 1 cbr 1000 ------- 0 0.0 2.0 23 23
- 5.1 0 1 cbr 1000 ------- 0 0.0 2.0 23 23
r 5.158 0 1 cbr 1000 ------- 0 0.0 2.0 23 23
+ 5.158 1 2 cbr 1000 ------- 0 0.0 2.0 23 23
- 5.158 1 2 cbr 1000 ------- 0 0.0 2.0 23 23
r 5.243 1 2 cbr 1000 ------- 0 0.0 2.0 23 23
+ 5.3 0 1 cbr 1000 ------- 0 0.0 2.0 24 24
- 5.3 0 1 cbr 1000 ------- 0 0.0 2.0 24 24
r 5.358 0 1 cbr 1000 ------- 0 0.0 2.0 24 24
+ 5.358 1 2 cbr 1000 ------- 0 0.0 2.0 24 24
- 5.358 1 2 cbr 1000 ------- 0 0.0 2.0 24 24
r 5.443 1 2 cbr 1000 ------- 0 0.0 2.0 24 24
+ 5.5 0 1 cbr 1000 ------- 0 0.0 2.0 25 25
- 5.5 0 1 cbr 1000 ------- 0 0.0 2.0 25 25
r 5.558 0 1 cbr 1000 ------- 0 0.0 2.0 25 25
+ 5.558 1 2 cbr 1000 ------- 0 0.0 2.0 25 25
- 5.558 1 2 cbr 1000 ------- 0 0.0 2.0 25 25
r 5.643 1 2 cbr 1000 ------- 0 0.0 2.0 25 25
+ 5.7 0 1 cbr 1000 ------- 0 0.0 2.0 26 26
- 5.7 0 1 cbr 1000 ------- 0 0.0 2.0 26 26
r 5.758 0 1 cbr 1000 ------- 0 0.0 2.0 26 26
+ 5.758 1 2 cbr 1000 ------- 0 0.0 2.0 26 26
- 5.758 1 2 cbr 1000 ------- 0 0.0 2.0 26 26
r 5.843 1 2 cbr 1000 ------- 0 0.0 2.0 26 26
+ 5.9 0 1 cbr 1000 ------- 0 0.0 2.0 27 27
- 5.9 0 1 cbr 1000 ------- 0 0.0 2.0 27 27
r 5.958 0 1 cbr 1000 ------- 0 0.0 2.0 27 27
+ 5.958 1 2 cbr 1000 ------- 0 0.0 2.0 27 27
- 5.958 1 2 cbr 1000 ------- 0 0.0 2.0 27 27
r 6.043 1 2 cbr 1000 ------- 0 0.0 2.0 27 27
+ 6.1 0 1 cbr 1000 ------- 0 0.0 2.0 28 28
- 6.1 0 1 cbr 1000 ------- 0 0.0 2.0 28 28
r 6.158 0 1 cbr 1000 ------- 0 0.0 2.0 28 28
+ 6.158 1 2 cbr 1000 ------- 0 0.0 2.0 28 28
- 6.158 1 2 cbr 1000 ------- 0 0.0 2.0 28 28
r 6.243 1 2 cbr 1000 ------- 0 0.0 2.0 28 28
+ 6.3 0 1 cbr 1000 ------- 0 0.0 2.0 29 29
- 6.3 0 1 cbr 1000 ------- 0 0.0 2.0 29 29
r 6.358 0 1 cbr 1000 ------- 0 0.0 2.0 29 29
+ 6.358 1 2 cbr 1000 ------- 0 0.0 2.0 29 29
- 6.358 1 2 cbr 1000 ------- 0 0.0 2.0 29 29
r 6.443 1 2 cbr 1000 ------- 0 0.0 2.0 29 29
+ 6.5 0 1 cbr 1000 ------- 0 0.0 2.0 30 30
- 6.5 0 1 cbr 1000 ------- 0 0.0 2.0 30 30
r 6.558 0 1 cbr 1000 ------- 0 0.0 2.0 30 30
+ 6.558 1 2 cbr 1000 ------- 0 0.0 2.0 30 30
- 6.558 1 2 cbr 1000 ------- 0 0.0 2.0 30 30
r 6.643 1 2 cbr 1000 ------- 0 0.0 2.0 30 30
+ 6.7 0 1 cbr 1000 ------- 0 0.0 2.0 31 31
- 6.7 0 1 cbr 1000 ------- 0 0.0 2.0 31 31
r 6.758 0 1 cbr 1000 ------- 0 0.0 2.0 31 31
+ 6.758 1 2 cbr 1000 ------- 0 0.0 2.0 31 31
- 6.758 1 2 cbr 1000 ------- 0 0.0 2.0 31 31
r 6.843 1 2 cbr 1000 ------- 0 0.0 2.0 31 31
+ 6.9 0 1 cbr 1000 ------- 0 0.0 2.0 32 32
- 6.9 0 1 cbr 1000 ------- 0 0.0 2.0 32 32
r 6.958 0 1 cbr 1000 ------- 0 0.0 2.0 32 32
+ 6.958 1 2 cbr 1000 ------- 0 0.0 2.0 32 32
- 6.958 1 2 cbr 1000 ------- 0 0.0 2.0 32 32
r 7.043 1 2 cbr 1000 ------- 0 0.0 2.0 32 32
+ 7.1 0 1 cbr 1000 ------- 0 0.0 2.0 33 33
- 7.1 0 1 cbr 1000 ------- 0 0.0 2.0 33 33
r 7.158 0 1 cbr 1000 ------- 0 0.0 2.0 33 33
+ 7.158 1 2 cbr 1000 ------- 0 0.0 2.0 33 33
- 7.158 1 2 cbr 1000 ------- 0 0.0 2.0 33 33
r 7.243 1 2 cbr 1000 ------- 0 0.0 2.0 33 33
+ 7.3 0 1 cbr 1000 ------- 0 0.0 2.0 34 34
- 7.3 0 1 cbr 1000 ------- 0 0.0 2.0 34 34
r 7.358 0 1 cbr 1000 ------- 0 0.0 2.0 34 34
+ 7.358 1 2 cbr 1000 ------- 0 0.0 2.0 34 34
- 7.358 1 2 cbr 1000 ------- 0 0.0 2.0 34 34
r 7.443 1 2 cbr 1000 ------- 0 0.0 2.0 34 34
+ 7.5 0 1 cbr 1000 ------- 0 0.0 2.0 35 35
- 7.5 0 1 cbr 1000 ------- 0 0.0 2.0 35 35
r 7.558 0 1 cbr 1000 ------- 0 0.0 2.0 35 35
+ 7.558 1 2 cbr 1000 ------- 0 0.0 2.0 35 35
- 7.558 1 2 cbr 1000 ------- 0 0.0 2.0 35 35
r 7.643 1 2 cbr 1000 ------- 0 0.0 2.0 35 35
+ 7.7 0 1 cbr 1000 ------- 0 0.0 2.0 36 36
- 7.7 0 1 cbr 1000 ------- 0 0.0 2.0 36 36
r 7.758 0 1 cbr 1000 ------- 0 0.0 2.0 36 36
+ 7.758 1 2 cbr 1000 ------- 0 0.0 2.0 36 36
- 7.758 1 2 cbr 1000 ------- 0 0.0 2.0 36 36
r 7.843 1 2 cbr 1000 ------- 0 0.0 2.0 36 36
+ 7.9 0 1 cbr 1000 ------- 0 0.0 2.0 37 37
- 7.9 0 1 cbr 1000 ------- 0 0.0 2.0 37 37
r 7.958 0 1 cbr 1000 ------- 0 0.0 2.0 37 37
+ 7.958 1 2 cbr 1000 ------- 0 0.0 2.0 37 37
- 7.958 1 2 cbr 1000 ------- 0 0.0 2.0 37 37
r 8.043 1 2 cbr 1000 ------- 0 0.0 2.0 37 37
+ 8.1 0 1 cbr 1000 ------- 0 0.0 2.0 38 38
- 8.1 0 1 cbr 1000 ------- 0 0.0 2.0 38 38
r 8.158 0 1 cbr 1000 ------- 0 0.0 2.0 38 38
+ 8.158 1 2 cbr 1000 ------- 0 0.0 2.0 38 38
- 8.158 1 2 cbr 1000 ------- 0 0.0 2.0 38 38
r 8.243 1 2 cbr 1000 ------- 0 0.0 2.0 38 38
+ 8.3 0 1 cbr 1000 ------- 0 0.0 2.0 39 39
- 8.3 0 1 cbr 1000 ------- 0 0.0 2.0 39 39
r 8.358 0 1 cbr 1000 ------- 0 0.0 2.0 39 39
+ 8.358 1 2 cbr 1000 ------- 0 0.0 2.0 39 39
- 8.358 1 2 cbr 1000 ------- 0 0.0 2.0 39 39
r 8.443 1 2 cbr 1000 ------- 0 0.0 2.0 39 39
+ 8.5 0 1 cbr 1000 ------- 0 0.0 2.0 40 40
- 8.5 0 1 cbr 1000 ------- 0 0.0 2.0 40 40
r 8.558 0 1 cbr 1000 ------- 0 0.0 2.0 40 40
+ 8.558 1 2 cbr 1000 ------- 0 0.0 2.0 40 40
- 8.558 1 2 cbr 1000 ------- 0 0.0 2.0 40 40
r 8.643 1 2 cbr 1000 ------- 0 0.0 2.0 40 40
+ 8.7 0 1 cbr 1000 ------- 0 0.0 2.0 41 41
- 8.7 0 1 cbr 1000 ------- 0 0.0 2.0 41 41
r 8.758 0 1 cbr 1000 ------- 0 0.0 2.0 41 41
+ 8.758 1 2 cbr 1000 ------- 0 0.0 2.0 41 41
- 8.758 1 2 cbr 1000 ------- 0 0.0 2.0 41 41
r 8.843 1 2 cbr 1000 ------- 0 0.0 2.0 41 41
+ 8.9 0 1 cbr 1000 ------- 0 0.0 2.0 42 42
- 8.9 0 1 cbr 1000 ------- 0 0.0 2.0 42 42
r 8.958 0 1 cbr 1000 ------- 0 0.0 2.0 42 42
+ 8.958 1 2 cbr 1000 ------- 0 0.0 2.0 42 42
- 8.958 1 2 cbr 1000 ------- 0 0.0 2.0 42 42
r 9.043 1 2 cbr 1000 ------- 0 0.0 2.0 42 42
+ 9.1 0 1 cbr 1000 ------- 0 0.0 2.0 43 43
- 9.1 0 1 cbr 1000 ------- 0 0.0 2.0 43 43
r 9.158 0 1 cbr 1000 ------- 0 0.0 2.0 43 43
+ 9.158 1 2 cbr 1000 ------- 0 0.0 2.0 43 43
- 9.158 1 2 cbr 1000 ------- 0 0.0 2.0 43 43
r 9.243 1 2 cbr 1000 ------- 0 0.0 2.0 43 43
+ 9.3 0 1 cbr 1000 ------- 0 0.0 2.0 44 44
- 9.3 0 1 cbr 1000 ------- 0 0.0 2.0 44 44
r 9.358 0 1 cbr 1000 ------- 0 0.0 2.0 44 44
+ 9.358 1 2 cbr 1000 ------- 0 0.0 2.0 44 44
- 9.358 1 2 cbr 1000 ------- 0 0.0 2.0 44 44
r 9.443 1 2 cbr 1000 ------- 0 0.0 2.0 44 44
+ 9.5 0 1 cbr 1000 ------- 0 0.0 2.0 45 45
- 9.5 0 1 cbr 1000 ------- 0 0.0 2.0 45 45
r 9.558 0 1 cbr 1000 ------- 0 0.0 2.0 45 45
+ 9.558 1 2 cbr 1000 ------- 0 0.0 2.0 45 45
- 9.558 1 2 cbr 1000 ------- 0 0.0 2.0 45 45
r 9.643 1 2 cbr 1000 ------- 0 0.0 2.0 45 45
+ 9.7 0 1 cbr 1000 ------- 0 0.0 2.0 46 46
- 9.7 0 1 cbr 1000 ------- 0 0.0 2.0 46 46
r 9.758 0 1 cbr 1000 ------- 0 0.0 2.0 46 46
+ 9.758 1 2 cbr 1000 ------- 0 0.0 2.0 46 46
- 9.758 1 2 cbr 1000 ------- 0 0.0 2.0 46 46
r 9.843 1 2 cbr 1000 ------- 0 0.0 2.0 46 46
+ 9.9 0 1 cbr 1000 ------- 0 0.0 2.0 47 47
- 9.9 0 1 cbr 1000 ------- 0 0.0 2.0 47 47
r 9.958 0 1 cbr 1000 ------- 0 0.0 2.0 47 47
+ 9.958 1 2 cbr 1000 ------- 0 0.0 2.0 47 47
- 9.958 1 2 cbr 1000 ------- 0 0.0 2.0 47 47
r 10.043 1 2 cbr 1000 ------- 0 0.0 2.0 47 47
+ 10.1 0 1 cbr 1000 ------- 0 0.0 2.0 48 48
- 10.1 0 1 cbr 1000 ------- 0 0.0 2.0 48 48
r 10.158 0 1 cbr 1000 ------- 0 0.0 2.0 48 48
+ 10.158 1 2 cbr 1000 ------- 0 0.0 2.0 48 48
- 10.158 1 2 cbr 1000 ------- 0 0.0 2.0 48 48
r 10.243 1 2 cbr 1000 ------- 0 0.0 2.0 48 48
+ 10.3 0 1 cbr 1000 ------- 0 0.0 2.0 49 49
- 10.3 0 1 cbr 1000 ------- 0 0.0 2.0 49 49
r 10.358 0 1 cbr 1000 ------- 0 0.0 2.0 49 49
+ 10.358 1 2 cbr 1000 ------- 0 0.0 2.0 49 49
- 10.358 1 2 cbr 1000 ------- 0 0.0 2.0 49 49
r 10.443 1 2 cbr 1000 ------- 0 0.0 2.0 49 49
+ 10.5 0 1 cbr 1000 ------- 0 0.0 2.0 50 50
- 10.5 0 1 cbr 1000 ------- 0 0.0 2.0 50 50
r 10.558 0 1 cbr 1000 ------- 0 0.0 2.0 50 50
+ 10.558 1 2 cbr 1000 ------- 0 0.0 2.0 50 50
- 10.558 1 2 cbr 1000 ------- 0 0.0 2.0 50 50
r 10.643 1 2 cbr 1000 ------- 0 0.0 2.0 50 50
