+ 0.5 0 1 cbr 1000 ------- 0 0.0 2.0 0 0
- 0.5 0 1 cbr 1000 ------- 0 0.0 2.0 0 0
r 0.558 0 1 cbr 1000 ------- 0 0.0 2.0 0 0
+ 0.558 1 2 cbr 1000 ------- 0 0.0 2.0 0 0
- 0.558 1 2 cbr 1000 ------- 0 0.0 2.0 0 0
+ 0.6 0 1 cbr 1000 ------- 0 0.0 2.0 1 1
- 0.6 0 1 cbr 1000 ------- 0 0.0 2.0 1 1
r 0.643 1 2 cbr 1000 ------- 0 0.0 2.0 0 0
r 0.658 0 1 cbr 1000 ------- 0 0.0 2.0 1 1
+ 0.658 1 2 cbr 1000 ------- 0 0.0 2.0 1 1
- 0.658 1 2 cbr 1000 ------- 0 0.0 2.0 1 1
+ 0.7 0 1 cbr 1000 ------- 0 0.0 2.0 2 2
- 0.7 0 1 cbr 1000 ------- 0 0.0 2.0 2 2
r 0.743 1 2 cbr 1000 ------- 0 0.0 2.0 1 1
r 0.758 0 1 cbr 1000 ------- 0 0.0 2.0 2 2
+ 0.758 1 2 cbr 1000 ------- 0 0.0 2.0 2 2
- 0.758 1 2 cbr 1000 ------- 0 0.0 2.0 2 2
+ 0.8 0 1 cbr 1000 ------- 0 0.0 2.0 3 3
- 0.8 0 1 cbr 1000 ------- 0 0.0 2.0 3 3
r 0.843 1 2 cbr 1000 ------- 0 0.0 2.0 2 2
r 0.858 0 1 cbr 1000 ------- 0 0.0 2.0 3 3
+ 0.858 1 2 cbr 1000 ------- 0 0.0 2.0 3 3
- 0.858 1 2 cbr 1000 ------- 0 0.0 2.0 3 3
+ 0.9 0 1 cbr 1000 ------- 0 0.0 2.0 4 4
- 0.9 0 1 cbr 1000 ------- 0 0.0 2.0 4 4
r 0.943 1 2 cbr 1000 ------- 0 0.0 2.0 3 3
r 0.958 0 1 cbr 1000 ------- 0 0.0 2.0 4 4
+ 0.958 1 2 cbr 1000 ------- 0 0.0 2.0 4 4
- 0.958 1 2 cbr 1000 ------- 0 0.0 2.0 4 4
+ 1 0 1 cbr 1000 ------- 0 0.0 2.0 5 5
- 1 0 1 cbr 1000 ------- 0 0.0 2.0 5 5
r 1.043 1 2 cbr 1000 ------- 0 0.0 2.0 4 4
r 1.058 0 1 cbr 1000 ------- 0 0.0 2.0 5 5
+ 1.058 1 2 cbr 1000 ------- 0 0.0 2.0 5 5
- 1.058 1 2 cbr 1000 ------- 0 0.0 2.0 5 5
+ 1.1 0 1 cbr 1000 ------- 0 0.0 2.0 6 6
- 1.1 0 1 cbr 1000 ------- 0 0.0 2.0 6 6
r 1.143 1 2 cbr 1000 ------- 0 0.0 2.0 5 5
r 1.158 0 1 cbr 1000 ------- 0 0.0 2.0 6 6
+ 1.158 1 2 cbr 1000 ------- 0 0.0 2.0 6 6
- 1.158 1 2 cbr 1000 ------- 0 0.0 2.0 6 6
+ 1.2 0 1 cbr 1000 ------- 0 0.0 2.0 7 7
- 1.2 0 1 cbr 1000 ------- 0 0.0 2.0 7 7
r 1.243 1 2 cbr 1000 ------- 0 0.0 2.0 6 6
r 1.258 0 1 cbr 1000 ------- 0 0.0 2.0 7 7
+ 1.258 1 2 cbr 1000 ------- 0 0.0 2.0 7 7
- 1.258 1 2 cbr 1000 ------- 0 0.0 2.0 7 7
+ 1.3 0 1 cbr 1000 ------- 0 0.0 2.0 8 8
- 1.3 0 1 cbr 1000 ------- 0 0.0 2.0 8 8
r 1.343 1 2 cbr 1000 ------- 0 0.0 2.0 7 7
r 1.358 0 1 cbr 1000 ------- 0 0.0 2.0 8 8
+ 1.358 1 2 cbr 1000 ------- 0 0.0 2.0 8 8
- 1.358 1 2 cbr 1000 ------- 0 0.0 2.0 8 8
+ 1.4 0 1 cbr 1000 ------- 0 0.0 2.0 9 9
- 1.4 0 1 cbr 1000 ------- 0 0.0 2.0 9 9
r 1.443 1 2 cbr 1000 ------- 0 0.0 2.0 8 8
r 1.458 0 1 cbr 1000 ------- 0 0.0 2.0 9 9
+ 1.458 1 2 cbr 1000 ------- 0 0.0 2.0 9 9
- 1.458 1 2 cbr 1000 ------- 0 0.0 2.0 9 9
+ 1.5 0 1 cbr 1000 ------- 0 0.0 2.0 10 10
- 1.5 0 1 cbr 1000 ------- 0 0.0 2.0 10 10
r 1.543 1 2 cbr 1000 ------- 0 0.0 2.0 9 9
r 1.558 0 1 cbr 1000 ------- 0 0.0 2.0 10 10
+ 1.558 1 2 cbr 1000 ------- 0 0.0 2.0 10 10
- 1.558 1 2 cbr 1000 ------- 0 0.0 2.0 10 10
+ 1.6 0 1 cbr 1000 ------- 0 0.0 2.0 11 11
- 1.6 0 1 cbr 1000 ------- 0 0.0 2.0 11 11
r 1.643 1 2 cbr 1000 ------- 0 0.0 2.0 10 10
r 1.658 0 1 cbr 1000 ------- 0 0.0 2.0 11 11
+ 1.658 1 2 cbr 1000 ------- 0 0.0 2.0 11 11
- 1.658 1 2 cbr 1000 ------- 0 0.0 2.0 11 11
+ 1.7 0 1 cbr 1000 ------- 0 0.0 2.0 12 12
- 1.7 0 1 cbr 1000 ------- 0 0.0 2.0 12 12
r 1.743 1 2 cbr 1000 ------- 0 0.0 2.0 11 11
r 1.758 0 1 cbr 1000 ------- 0 0.0 2.0 12 12
+ 1.758 1 2 cbr 1000 ------- 0 0.0 2.0 12 12
- 1.758 1 2 cbr 1000 ------- 0 0.0 2.0 12 12
+ 1.8 0 1 cbr 1000 ------- 0 0.0 2.0 13 13
- 1.8 0 1 cbr 1000 ------- 0 0.0 2.0 13 13
r 1.843 1 2 cbr 1000 ------- 0 0.0 2.0 12 12
r 1.858 0 1 cbr 1000 ------- 0 0.0 2.0 13 13
+ 1.858 1 2 cbr 1000 ------- 0 0.0 2.0 13 13
- 1.858 1 2 cbr 1000 ------- 0 0.0 2.0 13 13
+ 1.9 0 1 cbr 1000 ------- 0 0.0 2.0 14 14
- 1.9 0 1 cbr 1000 ------- 0 0.0 2.0 14 14
r 1.943 1 2 cbr 1000 ------- 0 0.0 2.0 13 13
r 1.958 0 1 cbr 1000 ------- 0 0.0 2.0 14 14
+ 1.958 1 2 cbr 1000 ------- 0 0.0 2.0 14 14
- 1.958 1 2 cbr 1000 ------- 0 0.0 2.0 14 14
+ 2 0 1 cbr 1000 ------- 0 0.0 2.0 15 15
- 2 0 1 cbr 1000 ------- 0 0.0 2.0 15 15
r 2.043 1 2 cbr 1000 ------- 0 0.0 2.0 14 14
r 2.058 0 1 cbr 1000 ------- 0 0.0 2.0 15 15
+ 2.058 1 2 cbr 1000 ------- 0 0.0 2.0 15 15
- 2.058 1 2 cbr 1000 ------- 0 0.0 2.0 15 15
+ 2.1 0 1 cbr 1000 ------- 0 0.0 2.0 16 16
- 2.1 0 1 cbr 1000 ------- 0 0.0 2.0 16 16
r 2.143 1 2 cbr 1000 ------- 0 0.0 2.0 15 15
r 2.158 0 1 cbr 1000 ------- 0 0.0 2.0 16 16
+ 2.158 1 2 cbr 1000 ------- 0 0.0 2.0 16 16
- 2.158 1 2 cbr 1000 ------- 0 0.0 2.0 16 16
+ 2.2 0 1 cbr 1000 ------- 0 0.0 2.0 17 17
- 2.2 0 1 cbr 1000 ------- 0 0.0 2.0 17 17
r 2.243 1 2 cbr 1000 ------- 0 0.0 2.0 16 16
r 2.258 0 1 cbr 1000 ------- 0 0.0 2.0 17 17
+ 2.258 1 2 cbr 1000 ------- 0 0.0 2.0 17 17
- 2.258 1 2 cbr 1000 ------- 0 0.0 2.0 17 17
+ 2.3 0 1 cbr 1000 ------- 0 0.0 2.0 18 18
- 2.3 0 1 cbr 1000 ------- 0 0.0 2.0 18 18
r 2.343 1 2 cbr 1000 ------- 0 0.0 2.0 17 17
r 2.358 0 1 cbr 1000 ------- 0 0.0 2.0 18 18
+ 2.358 1 2 cbr 1000 ------- 0 0.0 2.0 18 18
- 2.358 1 2 cbr 1000 ------- 0 0.0 2.0 18 18
+ 2.4 0 1 cbr 1000 ------- 0 0.0 2.0 19 19
- 2.4 0 1 cbr 1000 ------- 0 0.0 2.0 19 19
r 2.443 1 2 cbr 1000 ------- 0 0.0 2.0 18 18
r 2.458 0 1 cbr 1000 ------- 0 0.0 2.0 19 19
+ 2.458 1 2 cbr 1000 ------- 0 0.0 2.0 19 19
- 2.458 1 2 cbr 1000 ------- 0 0.0 2.0 19 19
+ 2.5 0 1 cbr 1000 ------- 0 0.0 2.0 20 20
- 2.5 0 1 cbr 1000 ------- 0 0.0 2.0 20 20
r 2.543 1 2 cbr 1000 ------- 0 0.0 2.0 19 19
r 2.558 0 1 cbr 1000 ------- 0 0.0 2.0 20 20
+ 2.558 1 2 cbr 1000 ------- 0 0.0 2.0 20 20
- 2.558 1 2 cbr 1000 ------- 0 0.0 2.0 20 20
+ 2.6 0 1 cbr 1000 ------- 0 0.0 2.0 21 21
- 2.6 0 1 cbr 1000 ------- 0 0.0 2.0 21 21
r 2.643 1 2 cbr 1000 ------- 0 0.0 2.0 20 20
r 2.658 0 1 cbr 1000 ------- 0 0.0 2.0 21 21
+ 2.658 1 2 cbr 1000 ------- 0 0.0 2.0 21 21
- 2.658 1 2 cbr 1000 ------- 0 0.0 2.0 21 21
+ 2.7 0 1 cbr 1000 ------- 0 0.0 2.0 22 22
- 2.7 0 1 cbr 1000 ------- 0 0.0 2.0 22 22
r 2.743 1 2 cbr 1000 ------- 0 0.0 2.0 21 21
r 2.758 0 1 cbr 1000 ------- 0 0.0 2.0 22 22
+ 2.758 1 2 cbr 1000 ------- 0 0.0 2.0 22 22
- 2.758 1 2 cbr 1000 ------- 0 0.0 2.0 22 22
+ 2.8 0 1 cbr 1000 ------- 0 0.0 2.0 23 23
- 2.8 0 1 cbr 1000 ------- 0 0.0 2.0 23 23
r 2.843 1 2 cbr 1000 ------- 0 0.0 2.0 22 22
r 2.858 0 1 cbr 1000 ------- 0 0.0 2.0 23 23
+ 2.858 1 2 cbr 1000 ------- 0 0.0 2.0 23 23
- 2.858 1 2 cbr 1000 ------- 0 0.0 2.0 23 23
+ 2.9 0 1 cbr 1000 ------- 0 0.0 2.0 24 24
- 2.9 0 1 cbr 1000 ------- 0 0.0 2.0 24 24
r 2.943 1 2 cbr 1000 ------- 0 0.0 2.0 23 23
r 2.958 0 1 cbr 1000 ------- 0 0.0 2.0 24 24
+ 2.958 1 2 cbr 1000 ------- 0 0.0 2.0 24 24
- 2.958 1 2 cbr 1000 ------- 0 0.0 2.0 24 24
+ 3 0 1 cbr 1000 ------- 0 0.0 2.0 25 25
- 3 0 1 cbr 1000 ------- 0 0.0 2.0 25 25
r 3.043 1 2 cbr 1000 ------- 0 0.0 2.0 24 24
r 3.058 0 1 cbr 1000 ------- 0 0.0 2.0 25 25
+ 3.058 1 2 cbr 1000 ------- 0 0.0 2.0 25 25
- 3.058 1 2 cbr 1000 ------- 0 0.0 2.0 25 25
+ 3.1 0 1 cbr 1000 ------- 0 0.0 2.0 26 26
- 3.1 0 1 cbr 1000 ------- 0 0.0 2.0 26 26
r 3.143 1 2 cbr 1000 ------- 0 0.0 2.0 25 25
r 3.158 0 1 cbr 1000 ------- 0 0.0 2.0 26 26
+ 3.158 1 2 cbr 1000 ------- 0 0.0 2.0 26 26
- 3.158 1 2 cbr 1000 ------- 0 0.0 2.0 26 26
+ 3.2 0 1 cbr 1000 ------- 0 0.0 2.0 27 27
- 3.2 0 1 cbr 1000 ------- 0 0.0 2.0 27 27
r 3.243 1 2 cbr 1000 ------- 0 0.0 2.0 26 26
r 3.258 0 1 cbr 1000 ------- 0 0.0 2.0 27 27
+ 3.258 1 2 cbr 1000 ------- 0 0.0 2.0 27 27
- 3.258 1 2 cbr 1000 ------- 0 0.0 2.0 27 27
+ 3.3 0 1 cbr 1000 ------- 0 0.0 2.0 28 28
- 3.3 0 1 cbr 1000 ------- 0 0.0 2.0 28 28
r 3.343 1 2 cbr 1000 ------- 0 0.0 2.0 27 27
r 3.358 0 1 cbr 1000 ------- 0 0.0 2.0 28 28
+ 3.358 1 2 cbr 1000 ------- 0 0.0 2.0 28 28
- 3.358 1 2 cbr 1000 ------- 0 0.0 2.0 28 28
+ 3.4 0 1 cbr 1000 ------- 0 0.0 2.0 29 29
- 3.4 0 1 cbr 1000 ------- 0 0.0 2.0 29 29
r 3.443 1 2 cbr 1000 ------- 0 0.0 2.0 28 28
r 3.458 0 1 cbr 1000 ------- 0 0.0 2.0 29 29
+ 3.458 1 2 cbr 1000 ------- 0 0.0 2.0 29 29
- 3.458 1 2 cbr 1000 ------- 0 0.0 2.0 29 29
+ 3.5 0 1 cbr 1000 ------- 0 0.0 2.0 30 30
- 3.5 0 1 cbr 1000 ------- 0 0.0 2.0 30 30
r 3.543 1 2 cbr 1000 ------- 0 0.0 2.0 29 29
r 3.558 0 1 cbr 1000 ------- 0 0.0 2.0 30 30
+ 3.558 1 2 cbr 1000 ------- 0 0.0 2.0 30 30
- 3.558 1 2 cbr 1000 ------- 0 0.0 2.0 30 30
+ 3.6 0 1 cbr 1000 ------- 0 0.0 2.0 31 31
- 3.6 0 1 cbr 1000 ------- 0 0.0 2.0 31 31
r 3.643 1 2 cbr 1000 ------- 0 0.0 2.0 30 30
r 3.658 0 1 cbr 1000 ------- 0 0.0 2.0 31 31
+ 3.658 1 2 cbr 1000 ------- 0 0.0 2.0 31 31
- 3.658 1 2 cbr 1000 ------- 0 0.0 2.0 31 31
+ 3.7 0 1 cbr 1000 ------- 0 0.0 2.0 32 32
- 3.7 0 1 cbr 1000 ------- 0 0.0 2.0 32 32
r 3.743 1 2 cbr 1000 ------- 0 0.0 2.0 31 31
r 3.758 0 1 cbr 1000 ------- 0 0.0 2.0 32 32
+ 3.758 1 2 cbr 1000 ------- 0 0.0 2.0 32 32
- 3.758 1 2 cbr 1000 ------- 0 0.0 2.0 32 32
+ 3.8 0 1 cbr 1000 ------- 0 0.0 2.0 33 33
- 3.8 0 1 cbr 1000 ------- 0 0.0 2.0 33 33
r 3.843 1 2 cbr 1000 ------- 0 0.0 2.0 32 32
r 3.858 0 1 cbr 1000 ------- 0 0.0 2.0 33 33
+ 3.858 1 2 cbr 1000 ------- 0 0.0 2.0 33 33
- 3.858 1 2 cbr 1000 ------- 0 0.0 2.0 33 33
+ 3.9 0 1 cbr 1000 ------- 0 0.0 2.0 34 34
- 3.9 0 1 cbr 1000 ------- 0 0.0 2.0 34 34
r 3.943 1 2 cbr 1000 ------- 0 0.0 2.0 33 33
r 3.958 0 1 cbr 1000 ------- 0 0.0 2.0 34 34
+ 3.958 1 2 cbr 1000 ------- 0 0.0 2.0 34 34
- 3.958 1 2 cbr 1000 ------- 0 0.0 2.0 34 34
+ 4 0 1 cbr 1000 ------- 0 0.0 2.0 35 35
- 4 0 1 cbr 1000 ------- 0 0.0 2.0 35 35
r 4.043 1 2 cbr 1000 ------- 0 0.0 2.0 34 34
r 4.058 0 1 cbr 1000 ------- 0 0.0 2.0 35 35
+ 4.058 1 2 cbr 1000 ------- 0 0.0 2.0 35 35
- 4.058 1 2 cbr 1000 ------- 0 0.0 2.0 35 35
+ 4.1 0 1 cbr 1000 ------- 0 0.0 2.0 36 36
- 4.1 0 1 cbr 1000 ------- 0 0.0 2.0 36 36
r 4.143 1 2 cbr 1000 ------- 0 0.0 2.0 35 35
r 4.158 0 1 cbr 1000 ------- 0 0.0 2.0 36 36
+ 4.158 1 2 cbr 1000 ------- 0 0.0 2.0 36 36
- 4.158 1 2 cbr 1000 ------- 0 0.0 2.0 36 36
+ 4.2 0 1 cbr 1000 ------- 0 0.0 2.0 37 37
- 4.2 0 1 cbr 1000 ------- 0 0.0 2.0 37 37
r 4.243 1 2 cbr 1000 ------- 0 0.0 2.0 36 36
r 4.258 0 1 cbr 1000 ------- 0 0.0 2.0 37 37
+ 4.258 1 2 cbr 1000 ------- 0 0.0 2.0 37 37
- 4.258 1 2 cbr 1000 ------- 0 0.0 2.0 37 37
+ 4.3 0 1 cbr 1000 ------- 0 0.0 2.0 38 38
- 4.3 0 1 cbr 1000 ------- 0 0.0 2.0 38 38
r 4.343 1 2 cbr 1000 ------- 0 0.0 2.0 37 37
r 4.358 0 1 cbr 1000 ------- 0 0.0 2.0 38 38
+ 4.358 1 2 cbr 1000 ------- 0 0.0 2.0 38 38
- 4.358 1 2 cbr 1000 ------- 0 0.0 2.0 38 38
+ 4.4 0 1 cbr 1000 ------- 0 0.0 2.0 39 39
- 4.4 0 1 cbr 1000 ------- 0 0.0 2.0 39 39
r 4.443 1 2 cbr 1000 ------- 0 0.0 2.0 38 38
r 4.458 0 1 cbr 1000 ------- 0 0.0 2.0 39 39
+ 4.458 1 2 cbr 1000 ------- 0 0.0 2.0 39 39
- 4.458 1 2 cbr 1000 ------- 0 0.0 2.0 39 39
+ 4.5 0 1 cbr 1000 ------- 0 0.0 2.0 40 40
- 4.5 0 1 cbr 1000 ------- 0 0.0 2.0 40 40
r 4.543 1 2 cbr 1000 ------- 0 0.0 2.0 39 39
r 4.558 0 1 cbr 1000 ------- 0 0.0 2.0 40 40
+ 4.558 1 2 cbr 1000 ------- 0 0.0 2.0 40 40
- 4.558 1 2 cbr 1000 ------- 0 0.0 2.0 40 40
+ 4.6 0 1 cbr 1000 ------- 0 0.0 2.0 41 41
- 4.6 0 1 cbr 1000 ------- 0 0.0 2.0 41 41
r 4.643 1 2 cbr 1000 ------- 0 0.0 2.0 40 40
r 4.658 0 1 cbr 1000 ------- 0 0.0 2.0 41 41
+ 4.658 1 2 cbr 1000 ------- 0 0.0 2.0 41 41
- 4.658 1 2 cbr 1000 ------- 0 0.0 2.0 41 41
+ 4.7 0 1 cbr 1000 ------- 0 0.0 2.0 42 42
- 4.7 0 1 cbr 1000 ------- 0 0.0 2.0 42 42
r 4.743 1 2 cbr 1000 ------- 0 0.0 2.0 41 41
r 4.758 0 1 cbr 1000 ------- 0 0.0 2.0 42 42
+ 4.758 1 2 cbr 1000 ------- 0 0.0 2.0 42 42
- 4.758 1 2 cbr 1000 ------- 0 0.0 2.0 42 42
+ 4.8 0 1 cbr 1000 ------- 0 0.0 2.0 43 43
- 4.8 0 1 cbr 1000 ------- 0 0.0 2.0 43 43
r 4.843 1 2 cbr 1000 ------- 0 0.0 2.0 42 42
r 4.858 0 1 cbr 1000 ------- 0 0.0 2.0 43 43
+ 4.858 1 2 cbr 1000 ------- 0 0.0 2.0 43 43
- 4.858 1 2 cbr 1000 ------- 0 0.0 2.0 43 43
+ 4.9 0 1 cbr 1000 ------- 0 0.0 2.0 44 44
- 4.9 0 1 cbr 1000 ------- 0 0.0 2.0 44 44
r 4.943 1 2 cbr 1000 ------- 0 0.0 2.0 43 43
r 4.958 0 1 cbr 1000 ------- 0 0.0 2.0 44 44
+ 4.958 1 2 cbr 1000 ------- 0 0.0 2.0 44 44
- 4.958 1 2 cbr 1000 ------- 0 0.0 2.0 44 44
+ 5 0 1 cbr 1000 ------- 0 0.0 2.0 45 45
- 5 0 1 cbr 1000 ------- 0 0.0 2.0 45 45
r 5.043 1 2 cbr 1000 ------- 0 0.0 2.0 44 44
r 5.058 0 1 cbr 1000 ------- 0 0.0 2.0 45 45
+ 5.058 1 2 cbr 1000 ------- 0 0.0 2.0 45 45
- 5.058 1 2 cbr 1000 ------- 0 0.0 2.0 45 45
+ 5.1 0 1 cbr 1000 ------- 0 0.0 2.0 46 46
- 5.1 0 1 cbr 1000 ------- 0 0.0 2.0 46 46
r 5.143 1 2 cbr 1000 ------- 0 0.0 2.0 45 45
r 5.158 0 1 cbr 1000 ------- 0 0.0 2.0 46 46
+ 5.158 1 2 cbr 1000 ------- 0 0.0 2.0 46 46
- 5.158 1 2 cbr 1000 ------- 0 0.0 2.0 46 46
+ 5.2 0 1 cbr 1000 ------- 0 0.0 2.0 47 47
- 5.2 0 1 cbr 1000 ------- 0 0.0 2.0 47 47
r 5.243 1 2 cbr 1000 ------- 0 0.0 2.0 46 46
r 5.258 0 1 cbr 1000 ------- 0 0.0 2.0 47 47
+ 5.258 1 2 cbr 1000 ------- 0 0.0 2.0 47 47
- 5.258 1 2 cbr 1000 ------- 0 0.0 2.0 47 47
+ 5.3 0 1 cbr 1000 ------- 0 0.0 2.0 48 48
- 5.3 0 1 cbr 1000 ------- 0 0.0 2.0 48 48
r 5.343 1 2 cbr 1000 ------- 0 0.0 2.0 47 47
r 5.358 0 1 cbr 1000 ------- 0 0.0 2.0 48 48
+ 5.358 1 2 cbr 1000 ------- 0 0.0 2.0 48 48
- 5.358 1 2 cbr 1000 ------- 0 0.0 2.0 48 48
+ 5.4 0 1 cbr 1000 ------- 0 0.0 2.0 49 49
- 5.4 0 1 cbr 1000 ------- 0 0.0 2.0 49 49
r 5.443 1 2 cbr 1000 ------- 0 0.0 2.0 48 48
r 5.458 0 1 cbr 1000 ------- 0 0.0 2.0 49 49
+ 5.458 1 2 cbr 1000 ------- 0 0.0 2.0 49 49
- 5.458 1 2 cbr 1000 ------- 0 0.0 2.0 49 49
+ 5.5 0 1 cbr 1000 ------- 0 0.0 2.0 50 50
- 5.5 0 1 cbr 1000 ------- 0 0.0 2.0 50 50
r 5.543 1 2 cbr 1000 ------- 0 0.0 2.0 49 49
r 5.558 0 1 cbr 1000 ------- 0 0.0 2.0 50 50
+ 5.558 1 2 cbr 1000 ------- 0 0.0 2.0 50 50
- 5.558 1 2 cbr 1000 ------- 0 0.0 2.0 50 50
+ 5.6 0 1 cbr 1000 ------- 0 0.0 2.0 51 51
- 5.6 0 1 cbr 1000 ------- 0 0.0 2.0 51 51
r 5.643 1 2 cbr 1000 ------- 0 0.0 2.0 50 50
r 5.658 0 1 cbr 1000 ------- 0 0.0 2.0 51 51
+ 5.658 1 2 cbr 1000 ------- 0 0.0 2.0 51 51
- 5.658 1 2 cbr 1000 ------- 0 0.0 2.0 51 51
+ 5.7 0 1 cbr 1000 ------- 0 0.0 2.0 52 52
- 5.7 0 1 cbr 1000 ------- 0 0.0 2.0 52 52
r 5.743 1 2 cbr 1000 ------- 0 0.0 2.0 51 51
r 5.758 0 1 cbr 1000 ------- 0 0.0 2.0 52 52
+ 5.758 1 2 cbr 1000 ------- 0 0.0 2.0 52 52
- 5.758 1 2 cbr 1000 ------- 0 0.0 2.0 52 52
+ 5.8 0 1 cbr 1000 ------- 0 0.0 2.0 53 53
- 5.8 0 1 cbr 1000 ------- 0 0.0 2.0 53 53
r 5.843 1 2 cbr 1000 ------- 0 0.0 2.0 52 52
r 5.858 0 1 cbr 1000 ------- 0 0.0 2.0 53 53
+ 5.858 1 2 cbr 1000 ------- 0 0.0 2.0 53 53
- 5.858 1 2 cbr 1000 ------- 0 0.0 2.0 53 53
+ 5.9 0 1 cbr 1000 ------- 0 0.0 2.0 54 54
- 5.9 0 1 cbr 1000 ------- 0 0.0 2.0 54 54
r 5.943 1 2 cbr 1000 ------- 0 0.0 2.0 53 53
r 5.958 0 1 cbr 1000 ------- 0 0.0 2.0 54 54
+ 5.958 1 2 cbr 1000 ------- 0 0.0 2.0 54 54
- 5.958 1 2 cbr 1000 ------- 0 0.0 2.0 54 54
+ 6 0 1 cbr 1000 ------- 0 0.0 2.0 55 55
- 6 0 1 cbr 1000 ------- 0 0.0 2.0 55 55
r 6.043 1 2 cbr 1000 ------- 0 0.0 2.0 54 54
r 6.058 0 1 cbr 1000 ------- 0 0.0 2.0 55 55
+ 6.058 1 2 cbr 1000 ------- 0 0.0 2.0 55 55
- 6.058 1 2 cbr 1000 ------- 0 0.0 2.0 55 55
+ 6.1 0 1 cbr 1000 ------- 0 0.0 2.0 56 56
- 6.1 0 1 cbr 1000 ------- 0 0.0 2.0 56 56
r 6.143 1 2 cbr 1000 ------- 0 0.0 2.0 55 55
r 6.158 0 1 cbr 1000 ------- 0 0.0 2.0 56 56
+ 6.158 1 2 cbr 1000 ------- 0 0.0 2.0 56 56
- 6.158 1 2 cbr 1000 ------- 0 0.0 2.0 56 56
+ 6.2 0 1 cbr 1000 ------- 0 0.0 2.0 57 57
- 6.2 0 1 cbr 1000 ------- 0 0.0 2.0 57 57
r 6.243 1 2 cbr 1000 ------- 0 0.0 2.0 56 56
r 6.258 0 1 cbr 1000 ------- 0 0.0 2.0 57 57
+ 6.258 1 2 cbr 1000 ------- 0 0.0 2.0 57 57
- 6.258 1 2 cbr 1000 ------- 0 0.0 2.0 57 57
+ 6.3 0 1 cbr 1000 ------- 0 0.0 2.0 58 58
- 6.3 0 1 cbr 1000 ------- 0 0.0 2.0 58 58
r 6.343 1 2 cbr 1000 ------- 0 0.0 2.0 57 57
r 6.358 0 1 cbr 1000 ------- 0 0.0 2.0 58 58
+ 6.358 1 2 cbr 1000 ------- 0 0.0 2.0 58 58
- 6.358 1 2 cbr 1000 ------- 0 0.0 2.0 58 58
+ 6.4 0 1 cbr 1000 ------- 0 0.0 2.0 59 59
- 6.4 0 1 cbr 1000 ------- 0 0.0 2.0 59 59
r 6.443 1 2 cbr 1000 ------- 0 0.0 2.0 58 58
r 6.458 0 1 cbr 1000 ------- 0 0.0 2.0 59 59
+ 6.458 1 2 cbr 1000 ------- 0 0.0 2.0 59 59
- 6.458 1 2 cbr 1000 ------- 0 0.0 2.0 59 59
+ 6.5 0 1 cbr 1000 ------- 0 0.0 2.0 60 60
- 6.5 0 1 cbr 1000 ------- 0 0.0 2.0 60 60
r 6.543 1 2 cbr 1000 ------- 0 0.0 2.0 59 59
r 6.558 0 1 cbr 1000 ------- 0 0.0 2.0 60 60
+ 6.558 1 2 cbr 1000 ------- 0 0.0 2.0 60 60
- 6.558 1 2 cbr 1000 ------- 0 0.0 2.0 60 60
+ 6.6 0 1 cbr 1000 ------- 0 0.0 2.0 61 61
- 6.6 0 1 cbr 1000 ------- 0 0.0 2.0 61 61
r 6.643 1 2 cbr 1000 ------- 0 0.0 2.0 60 60
r 6.658 0 1 cbr 1000 ------- 0 0.0 2.0 61 61
+ 6.658 1 2 cbr 1000 ------- 0 0.0 2.0 61 61
- 6.658 1 2 cbr 1000 ------- 0 0.0 2.0 61 61
+ 6.7 0 1 cbr 1000 ------- 0 0.0 2.0 62 62
- 6.7 0 1 cbr 1000 ------- 0 0.0 2.0 62 62
r 6.743 1 2 cbr 1000 ------- 0 0.0 2.0 61 61
r 6.758 0 1 cbr 1000 ------- 0 0.0 2.0 62 62
+ 6.758 1 2 cbr 1000 ------- 0 0.0 2.0 62 62
- 6.758 1 2 cbr 1000 ------- 0 0.0 2.0 62 62
+ 6.8 0 1 cbr 1000 ------- 0 0.0 2.0 63 63
- 6.8 0 1 cbr 1000 ------- 0 0.0 2.0 63 63
r 6.843 1 2 cbr 1000 ------- 0 0.0 2.0 62 62
r 6.858 0 1 cbr 1000 ------- 0 0.0 2.0 63 63
+ 6.858 1 2 cbr 1000 ------- 0 0.0 2.0 63 63
- 6.858 1 2 cbr 1000 ------- 0 0.0 2.0 63 63
+ 6.9 0 1 cbr 1000 ------- 0 0.0 2.0 64 64
- 6.9 0 1 cbr 1000 ------- 0 0.0 2.0 64 64
r 6.943 1 2 cbr 1000 ------- 0 0.0 2.0 63 63
r 6.958 0 1 cbr 1000 ------- 0 0.0 2.0 64 64
+ 6.958 1 2 cbr 1000 ------- 0 0.0 2.0 64 64
- 6.958 1 2 cbr 1000 ------- 0 0.0 2.0 64 64
+ 7 0 1 cbr 1000 ------- 0 0.0 2.0 65 65
- 7 0 1 cbr 1000 ------- 0 0.0 2.0 65 65
r 7.043 1 2 cbr 1000 ------- 0 0.0 2.0 64 64
r 7.058 0 1 cbr 1000 ------- 0 0.0 2.0 65 65
+ 7.058 1 2 cbr 1000 ------- 0 0.0 2.0 65 65
- 7.058 1 2 cbr 1000 ------- 0 0.0 2.0 65 65
+ 7.1 0 1 cbr 1000 ------- 0 0.0 2.0 66 66
- 7.1 0 1 cbr 1000 ------- 0 0.0 2.0 66 66
r 7.143 1 2 cbr 1000 ------- 0 0.0 2.0 65 65
r 7.158 0 1 cbr 1000 ------- 0 0.0 2.0 66 66
+ 7.158 1 2 cbr 1000 ------- 0 0.0 2.0 66 66
- 7.158 1 2 cbr 1000 ------- 0 0.0 2.0 66 66
+ 7.2 0 1 cbr 1000 ------- 0 0.0 2.0 67 67
- 7.2 0 1 cbr 1000 ------- 0 0.0 2.0 67 67
r 7.243 1 2 cbr 1000 ------- 0 0.0 2.0 66 66
r 7.258 0 1 cbr 1000 ------- 0 0.0 2.0 67 67
+ 7.258 1 2 cbr 1000 ------- 0 0.0 2.0 67 67
- 7.258 1 2 cbr 1000 ------- 0 0.0 2.0 67 67
+ 7.3 0 1 cbr 1000 ------- 0 0.0 2.0 68 68
- 7.3 0 1 cbr 1000 ------- 0 0.0 2.0 68 68
r 7.343 1 2 cbr 1000 ------- 0 0.0 2.0 67 67
r 7.358 0 1 cbr 1000 ------- 0 0.0 2.0 68 68
+ 7.358 1 2 cbr 1000 ------- 0 0.0 2.0 68 68
- 7.358 1 2 cbr 1000 ------- 0 0.0 2.0 68 68
+ 7.4 0 1 cbr 1000 ------- 0 0.0 2.0 69 69
- 7.4 0 1 cbr 1000 ------- 0 0.0 2.0 69 69
r 7.443 1 2 cbr 1000 ------- 0 0.0 2.0 68 68
r 7.458 0 1 cbr 1000 ------- 0 0.0 2.0 69 69
+ 7.458 1 2 cbr 1000 ------- 0 0.0 2.0 69 69
- 7.458 1 2 cbr 1000 ------- 0 0.0 2.0 69 69
+ 7.5 0 1 cbr 1000 ------- 0 0.0 2.0 70 70
- 7.5 0 1 cbr 1000 ------- 0 0.0 2.0 70 70
r 7.543 1 2 cbr 1000 ------- 0 0.0 2.0 69 69
r 7.558 0 1 cbr 1000 ------- 0 0.0 2.0 70 70
+ 7.558 1 2 cbr 1000 ------- 0 0.0 2.0 70 70
- 7.558 1 2 cbr 1000 ------- 0 0.0 2.0 70 70
+ 7.6 0 1 cbr 1000 ------- 0 0.0 2.0 71 71
- 7.6 0 1 cbr 1000 ------- 0 0.0 2.0 71 71
r 7.643 1 2 cbr 1000 ------- 0 0.0 2.0 70 70
r 7.658 0 1 cbr 1000 ------- 0 0.0 2.0 71 71
+ 7.658 1 2 cbr 1000 ------- 0 0.0 2.0 71 71
- 7.658 1 2 cbr 1000 ------- 0 0.0 2.0 71 71
+ 7.7 0 1 cbr 1000 ------- 0 0.0 2.0 72 72
- 7.7 0 1 cbr 1000 ------- 0 0.0 2.0 72 72
r 7.743 1 2 cbr 1000 ------- 0 0.0 2.0 71 71
r 7.758 0 1 cbr 1000 ------- 0 0.0 2.0 72 72
+ 7.758 1 2 cbr 1000 ------- 0 0.0 2.0 72 72
- 7.758 1 2 cbr 1000 ------- 0 0.0 2.0 72 72
+ 7.8 0 1 cbr 1000 ------- 0 0.0 2.0 73 73
- 7.8 0 1 cbr 1000 ------- 0 0.0 2.0 73 73
r 7.843 1 2 cbr 1000 ------- 0 0.0 2.0 72 72
r 7.858 0 1 cbr 1000 ------- 0 0.0 2.0 73 73
+ 7.858 1 2 cbr 1000 ------- 0 0.0 2.0 73 73
- 7.858 1 2 cbr 1000 ------- 0 0.0 2.0 73 73
+ 7.9 0 1 cbr 1000 ------- 0 0.0 2.0 74 74
- 7.9 0 1 cbr 1000 ------- 0 0.0 2.0 74 74
r 7.943 1 2 cbr 1000 ------- 0 0.0 2.0 73 73
r 7.958 0 1 cbr 1000 ------- 0 0.0 2.0 74 74
+ 7.958 1 2 cbr 1000 ------- 0 0.0 2.0 74 74
- 7.958 1 2 cbr 1000 ------- 0 0.0 2.0 74 74
+ 8 0 1 cbr 1000 ------- 0 0.0 2.0 75 75
- 8 0 1 cbr 1000 ------- 0 0.0 2.0 75 75
r 8.043 1 2 cbr 1000 ------- 0 0.0 2.0 74 74
r 8.058 0 1 cbr 1000 ------- 0 0.0 2.0 75 75
+ 8.058 1 2 cbr 1000 ------- 0 0.0 2.0 75 75
- 8.058 1 2 cbr 1000 ------- 0 0.0 2.0 75 75
+ 8.1 0 1 cbr 1000 ------- 0 0.0 2.0 76 76
- 8.1 0 1 cbr 1000 ------- 0 0.0 2.0 76 76
r 8.143 1 2 cbr 1000 ------- 0 0.0 2.0 75 75
r 8.158 0 1 cbr 1000 ------- 0 0.0 2.0 76 76
+ 8.158 1 2 cbr 1000 ------- 0 0.0 2.0 76 76
- 8.158 1 2 cbr 1000 ------- 0 0.0 2.0 76 76
+ 8.2 0 1 cbr 1000 ------- 0 0.0 2.0 77 77
- 8.2 0 1 cbr 1000 ------- 0 0.0 2.0 77 77
r 8.243 1 2 cbr 1000 ------- 0 0.0 2.0 76 76
r 8.258 0 1 cbr 1000 ------- 0 0.0 2.0 77 77
+ 8.258 1 2 cbr 1000 ------- 0 0.0 2.0 77 77
- 8.258 1 2 cbr 1000 ------- 0 0.0 2.0 77 77
+ 8.3 0 1 cbr 1000 ------- 0 0.0 2.0 78 78
- 8.3 0 1 cbr 1000 ------- 0 0.0 2.0 78 78
r 8.343 1 2 cbr 1000 ------- 0 0.0 2.0 77 77
r 8.358 0 1 cbr 1000 ------- 0 0.0 2.0 78 78
+ 8.358 1 2 cbr 1000 ------- 0 0.0 2.0 78 78
- 8.358 1 2 cbr 1000 ------- 0 0.0 2.0 78 78
+ 8.4 0 1 cbr 1000 ------- 0 0.0 2.0 79 79
- 8.4 0 1 cbr 1000 ------- 0 0.0 2.0 79 79
r 8.443 1 2 cbr 1000 ------- 0 0.0 2.0 78 78
r 8.458 0 1 cbr 1000 ------- 0 0.0 2.0 79 79
+ 8.458 1 2 cbr 1000 ------- 0 0.0 2.0 79 79
- 8.458 1 2 cbr 1000 ------- 0 0.0 2.0 79 79
+ 8.5 0 1 cbr 1000 ------- 0 0.0 2.0 80 80
- 8.5 0 1 cbr 1000 ------- 0 0.0 2.0 80 80
r 8.543 1 2 cbr 1000 ------- 0 0.0 2.0 79 79
r 8.558 0 1 cbr 1000 ------- 0 0.0 2.0 80 80
+ 8.558 1 2 cbr 1000 ------- 0 0.0 2.0 80 80
- 8.558 1 2 cbr 1000 ------- 0 0.0 2.0 80 80
+ 8.6 0 1 cbr 1000 ------- 0 0.0 2.0 81 81
- 8.6 0 1 cbr 1000 ------- 0 0.0 2.0 81 81
r 8.643 1 2 cbr 1000 ------- 0 0.0 2.0 80 80
r 8.658 0 1 cbr 1000 ------- 0 0.0 2.0 81 81
+ 8.658 1 2 cbr 1000 ------- 0 0.0 2.0 81 81
- 8.658 1 2 cbr 1000 ------- 0 0.0 2.0 81 81
+ 8.7 0 1 cbr 1000 ------- 0 0.0 2.0 82 82
- 8.7 0 1 cbr 1000 ------- 0 0.0 2.0 82 82
r 8.743 1 2 cbr 1000 ------- 0 0.0 2.0 81 81
r 8.758 0 1 cbr 1000 ------- 0 0.0 2.0 82 82
+ 8.758 1 2 cbr 1000 ------- 0 0.0 2.0 82 82
- 8.758 1 2 cbr 1000 ------- 0 0.0 2.0 82 82
+ 8.8 0 1 cbr 1000 ------- 0 0.0 2.0 83 83
- 8.8 0 1 cbr 1000 ------- 0 0.0 2.0 83 83
r 8.843 1 2 cbr 1000 ------- 0 0.0 2.0 82 82
r 8.858 0 1 cbr 1000 ------- 0 0.0 2.0 83 83
+ 8.858 1 2 cbr 1000 ------- 0 0.0 2.0 83 83
- 8.858 1 2 cbr 1000 ------- 0 0.0 2.0 83 83
+ 8.9 0 1 cbr 1000 ------- 0 0.0 2.0 84 84
- 8.9 0 1 cbr 1000 ------- 0 0.0 2.0 84 84
r 8.943 1 2 cbr 1000 ------- 0 0.0 2.0 83 83
r 8.958 0 1 cbr 1000 ------- 0 0.0 2.0 84 84
+ 8.958 1 2 cbr 1000 ------- 0 0.0 2.0 84 84
- 8.958 1 2 cbr 1000 ------- 0 0.0 2.0 84 84
+ 9 0 1 cbr 1000 ------- 0 0.0 2.0 85 85
- 9 0 1 cbr 1000 ------- 0 0.0 2.0 85 85
r 9.043 1 2 cbr 1000 ------- 0 0.0 2.0 84 84
r 9.058 0 1 cbr 1000 ------- 0 0.0 2.0 85 85
+ 9.058 1 2 cbr 1000 ------- 0 0.0 2.0 85 85
- 9.058 1 2 cbr 1000 ------- 0 0.0 2.0 85 85
+ 9.1 0 1 cbr 1000 ------- 0 0.0 2.0 86 86
- 9.1 0 1 cbr 1000 ------- 0 0.0 2.0 86 86
r 9.143 1 2 cbr 1000 ------- 0 0.0 2.0 85 85
r 9.158 0 1 cbr 1000 ------- 0 0.0 2.0 86 86
+ 9.158 1 2 cbr 1000 ------- 0 0.0 2.0 86 86
- 9.158 1 2 cbr 1000 ------- 0 0.0 2.0 86 86
+ 9.2 0 1 cbr 1000 ------- 0 0.0 2.0 87 87
- 9.2 0 1 cbr 1000 ------- 0 0.0 2.0 87 87
r 9.243 1 2 cbr 1000 ------- 0 0.0 2.0 86 86
r 9.258 0 1 cbr 1000 ------- 0 0.0 2.0 87 87
+ 9.258 1 2 cbr 1000 ------- 0 0.0 2.0 87 87
- 9.258 1 2 cbr 1000 ------- 0 0.0 2.0 87 87
+ 9.3 0 1 cbr 1000 ------- 0 0.0 2.0 88 88
- 9.3 0 1 cbr 1000 ------- 0 0.0 2.0 88 88
r 9.343 1 2 cbr 1000 ------- 0 0.0 2.0 87 87
r 9.358 0 1 cbr 1000 ------- 0 0.0 2.0 88 88
+ 9.358 1 2 cbr 1000 ------- 0 0.0 2.0 88 88
- 9.358 1 2 cbr 1000 ------- 0 0.0 2.0 88 88
+ 9.4 0 1 cbr 1000 ------- 0 0.0 2.0 89 89
- 9.4 0 1 cbr 1000 ------- 0 0.0 2.0 89 89
r 9.443 1 2 cbr 1000 ------- 0 0.0 2.0 88 88
r 9.458 0 1 cbr 1000 ------- 0 0.0 2.0 89 89
+ 9.458 1 2 cbr 1000 ------- 0 0.0 2.0 89 89
- 9.458 1 2 cbr 1000 ------- 0 0.0 2.0 89 89
+ 9.5 0 1 cbr 1000 ------- 0 0.0 2.0 90 90
- 9.5 0 1 cbr 1000 ------- 0 0.0 2.0 90 90
r 9.543 1 2 cbr 1000 ------- 0 0.0 2.0 89 89
r 9.558 0 1 cbr 1000 ------- 0 0.0 2.0 90 90
+ 9.558 1 2 cbr 1000 ------- 0 0.0 2.0 90 90
- 9.558 1 2 cbr 1000 ------- 0 0.0 2.0 90 90
+ 9.6 0 1 cbr 1000 ------- 0 0.0 2.0 91 91
- 9.6 0 1 cbr 1000 ------- 0 0.0 2.0 91 91
r 9.643 1 2 cbr 1000 ------- 0 0.0 2.0 90 90
r 9.658 0 1 cbr 1000 ------- 0 0.0 2.0 91 91
+ 9.658 1 2 cbr 1000 ------- 0 0.0 2.0 91 91
- 9.658 1 2 cbr 1000 ------- 0 0.0 2.0 91 91
+ 9.7 0 1 cbr 1000 ------- 0 0.0 2.0 92 92
- 9.7 0 1 cbr 1000 ------- 0 0.0 2.0 92 92
r 9.743 1 2 cbr 1000 ------- 0 0.0 2.0 91 91
r 9.758 0 1 cbr 1000 ------- 0 0.0 2.0 92 92
+ 9.758 1 2 cbr 1000 ------- 0 0.0 2.0 92 92
- 9.758 1 2 cbr 1000 ------- 0 0.0 2.0 92 92
+ 9.8 0 1 cbr 1000 ------- 0 0.0 2.0 93 93
- 9.8 0 1 cbr 1000 ------- 0 0.0 2.0 93 93
r 9.843 1 2 cbr 1000 ------- 0 0.0 2.0 92 92
r 9.858 0 1 cbr 1000 ------- 0 0.0 2.0 93 93
+ 9.858 1 2 cbr 1000 ------- 0 0.0 2.0 93 93
- 9.858 1 2 cbr 1000 ------- 0 0.0 2.0 93 93
+ 9.9 0 1 cbr 1000 ------- 0 0.0 2.0 94 94
- 9.9 0 1 cbr 1000 ------- 0 0.0 2.0 94 94
r 9.943 1 2 cbr 1000 ------- 0 0.0 2.0 93 93
r 9.958 0 1 cbr 1000 ------- 0 0.0 2.0 94 94
+ 9.958 1 2 cbr 1000 ------- 0 0.0 2.0 94 94
- 9.958 1 2 cbr 1000 ------- 0 0.0 2.0 94 94
+ 10 0 1 cbr 1000 ------- 0 0.0 2.0 95 95
- 10 0 1 cbr 1000 ------- 0 0.0 2.0 95 95
r 10.043 1 2 cbr 1000 ------- 0 0.0 2.0 94 94
r 10.058 0 1 cbr 1000 ------- 0 0.0 2.0 95 95
+ 10.058 1 2 cbr 1000 ------- 0 0.0 2.0 95 95
- 10.058 1 2 cbr 1000 ------- 0 0.0 2.0 95 95
+ 10.1 0 1 cbr 1000 ------- 0 0.0 2.0 96 96
- 10.1 0 1 cbr 1000 ------- 0 0.0 2.0 96 96
r 10.143 1 2 cbr 1000 ------- 0 0.0 2.0 95 95
r 10.158 0 1 cbr 1000 ------- 0 0.0 2.0 96 96
+ 10.158 1 2 cbr 1000 ------- 0 0.0 2.0 96 96
- 10.158 1 2 cbr 1000 ------- 0 0.0 2.0 96 96
+ 10.2 0 1 cbr 1000 ------- 0 0.0 2.0 97 97
- 10.2 0 1 cbr 1000 ------- 0 0.0 2.0 97 97
r 10.243 1 2 cbr 1000 ------- 0 0.0 2.0 96 96
r 10.258 0 1 cbr 1000 ------- 0 0.0 2.0 97 97
+ 10.258 1 2 cbr 1000 ------- 0 0.0 2.0 97 97
- 10.258 1 2 cbr 1000 ------- 0 0.0 2.0 97 97
+ 10.3 0 1 cbr 1000 ------- 0 0.0 2.0 98 98
- 10.3 0 1 cbr 1000 ------- 0 0.0 2.0 98 98
r 10.343 1 2 cbr 1000 ------- 0 0.0 2.0 97 97
r 10.358 0 1 cbr 1000 ------- 0 0.0 2.0 98 98
+ 10.358 1 2 cbr 1000 ------- 0 0.0 2.0 98 98
- 10.358 1 2 cbr 1000 ------- 0 0.0 2.0 98 98
+ 10.4 0 1 cbr 1000 ------- 0 0.0 2.0 99 99
- 10.4 0 1 cbr 1000 ------- 0 0.0 2.0 99 99
r 10.443 1 2 cbr 1000 ------- 0 0.0 2.0 98 98
r 10.458 0 1 cbr 1000 ------- 0 0.0 2.0 99 99
+ 10.458 1 2 cbr 1000 ------- 0 0.0 2.0 99 99
- 10.458 1 2 cbr 1000 ------- 0 0.0 2.0 99 99
+ 10.5 0 1 cbr 1000 ------- 0 0.0 2.0 100 100
- 10.5 0 1 cbr 1000 ------- 0 0.0 2.0 100 100
r 10.543 1 2 cbr 1000 ------- 0 0.0 2.0 99 99
r 10.558 0 1 cbr 1000 ------- 0 0.0 2.0 100 100
+ 10.558 1 2 cbr 1000 ------- 0 0.0 2.0 100 100
- 10.558 1 2 cbr 1000 ------- 0 0.0 2.0 100 100
r 10.643 1 2 cbr 1000 ------- 0 0.0 2.0 100 100
